!XOLD, YOLD, ZOLD
-5.45468 -7.66229 -20.0972
-8.57665 -2.61628 -2.07563
0.193018 16.0314 18.7197
-1.01881 -18.405 21.999
-0.360876 -5.83555 -17.2903
2.04811 4.19843 -9.02095
-3.43047 -17.7945 8.35928
17.6971 -15.1614 -17.6824
20.3293 18.5103 6.85981
-17.6445 -11.8259 -13.1058
2.13865 6.89588 -2.47355
-12.7358 -5.11176 5.83951
-5.87934 8.23327 -9.19548
-21.8885 -1.4592 -3.53548
19.5425 19.0346 15.2226
20.8894 -11.3264 5.35552
20.6718 16.4314 -21.757
-7.99764 -8.5319 20.8409
-17.2168 -10.6695 7.29462
8.30455 2.69559 0.835359
-15.283 13.7366 19.7744
16.0381 -0.540231 12.5575
-6.0925 20.2895 7.35441
6.40249 14.7632 -10.8067
13.4706 -21.5036 -0.973054
11.2657 3.38829 2.36048
-5.48634 -9.53835 2.47744
-15.8108 0.383097 1.26413
-18.3767 18.509 16.3482
-7.09124 -19.8157 16.4686
-1.81505 15.4464 3.76064
16.838 3.71257 -21.9557
-3.34325 10.0393 5.61277
20.2936 -9.18532 15.3463
-1.58918 18.2555 -17.3726
-5.26652 18.8481 -1.11957
0.168914 6.53492 10.7309
-4.33892 20.5376 17.9621
-9.04387 -11.4879 6.74804
16.8364 -2.12735 16.7667
5.63997 -20.4113 14.1759
-12.0452 5.12923 -0.371028
-12.6734 2.58187 14.1423
-18.2341 -8.22486 -20.628
-13.1118 -17.2656 17.8265
-12.7491 -15.1933 3.54507
-21.969 -11.8785 10.164
20.5863 -21.7718 -21.5229
-7.40027 -3.22056 -18.4973
3.0027 -10.8268 0.69089
4.73699 -19.5748 17.2579
4.03371 20.26 -17.8866
-21.4044 -13.8026 21.1533
13.1555 0.39209 8.63087
0.212284 -13.4757 16.4521
2.17562 -8.46619 -20.9875
12.2372 18.5236 -17.614
-16.7583 -13.2167 11.1935
6.02886 -19.8056 -7.81291
18.002 8.9485 12.0938
-0.378209 7.07088 21.6954
-20.6208 7.94948 3.01666
7.70689 11.6116 -10.6287
-4.81229 16.7325 -20.3931
19.2872 0.906555 0.900599
-4.19755 -5.30508 12.8124
12.9916 9.36612 19.3726
12.8488 -1.54728 13.6632
-11.9147 -18.5438 -18.9754
-5.17843 4.87666 3.60255
12.1915 -0.0474886 20.3153
-1.36436 -12.2257 12.4399
-2.85737 5.29286 -12.1002
-4.79842 -20.7625 -11.4519
19.4954 -2.75747 -20.9197
21.4323 -5.98163 3.46909
-5.61841 16.4612 -10.3028
-7.10716 -2.81666 11.4703
-6.88107 21.2339 20.3793
9.36038 -0.235643 11.9763
2.21817 -3.63687 -20.065
6.33248 -11.2999 21.158
3.92283 -13.8288 2.13287
-14.6251 19.5112 17.657
-0.444102 -10.2227 8.94705
-16.4769 -7.27683 0.298156
-10.8738 -5.64058 9.62258
-8.38013 10.6552 20.1434
9.63771 6.21068 -13.9689
-0.105581 -7.57021 -10.9721
7.33248 2.79304 15.8616
3.11258 -14.1878 10.0858
13.5091 -13.44 19.192
2.53095 -13.4004 -18.3394
-6.50356 -5.54282 15.8242
-16.8462 21.5996 -3.61073
14.3449 -8.6491 -14.8574
-12.9836 4.0924 6.21693
14.8767 19.8665 -21.1296
12.1392 5.19108 -11.8853
-20.8898 -9.01585 -5.27516
3.66551 -15.7213 -10.7702
-20.3029 1.36245 18.4639
10.3506 -14.3977 21.3987
0.334019 -11.1128 21.7911
2.71876 7.75872 2.13216
-20.9791 -5.71066 -0.192072
12.3483 -7.99686 -9.46379
2.75039 10.6383 19.9061
-6.35867 -5.7431 -13.7236
-16.8158 -13.2465 -8.06829
14.4926 3.09611 -0.183404
-21.0771 -14.4377 -3.89695
-2.07406 5.14423 -6.03937
3.04892 -11.63 18.4427
7.25382 -14.9085 18.9802
-12.0456 9.6125 -13.7341
21.1804 -0.438543 -15.3499
13.9678 7.11502 5.5443
17.6002 20.7048 1.52723
16.4975 5.20176 15.5758
-17.3777 11.503 -19.78
-12.144 6.77432 4.27361
-21.9425 11.6593 -17.3397
0.150671 3.99293 15.8369
20.5264 -18.2021 20.3954
-11.2157 -18.896 -2.29062
13.266 10.8892 5.69922
-1.52029 9.65864 -4.7037
-0.848117 17.6953 15.9904
-20.7017 7.11556 -16.7042
-13.4051 19.1411 13.2324
12.4297 -8.00764 19.3378
13.9624 1.0843 -7.35588
-4.3468 -0.376183 -0.366422
6.25127 2.87993 -5.35736
-12.5623 5.05911 -21.034
9.42659 -0.811513 5.58639
0.719202 -19.925 -16.3804
-17.1267 9.83044 6.98941
-0.853475 16.3714 -4.54061
-5.24717 12.5631 -12.0895
17.2882 -13.8997 -7.97225
4.47024 -16.3683 -7.56254
-8.23905 -2.29655 -14.2529
-13.9162 -4.90457 -11.9901
12.5903 8.58555 -7.14449
9.88982 14.6431 -20.8734
19.9081 3.18275 16.7568
6.96214 -9.49422 -4.1445
21.8092 -3.76444 -18.4564
-19.0878 4.26543 0.130678
-9.19424 -17.283 -6.01786
-19.1395 -0.0312293 -6.53186
5.96021 -0.897142 15.5003
16.1879 -21.6518 -13.5381
-9.05132 -16.1398 -12.329
0.902599 1.80916 11.0214
-4.28248 8.60557 21.3764
4.54074 -12.5377 -13.0354
17.6988 -13.5286 -1.0251
-0.581146 7.65486 0.785166
18.6348 20.4177 -11.8958
5.4265 4.5003 -11.4177
3.83776 -5.92158 5.4158
-20.3216 -13.4991 13.7024
-13.4969 22.0291 -16.606
-7.04801 -10.0492 -9.60324
-21.098 -8.13482 11.9844
0.218376 17.7163 5.76533
19.2425 3.5358 3.05611
-9.48827 1.85664 -10.2451
-13.3127 14.6008 12.5174
2.19749 21.7446 4.4923
18.2379 -10.0768 -15.2545
4.4244 15.1566 -15.6251
8.66649 5.90572 -4.23811
-18.5323 14.6169 -21.4326
-12.0992 -1.24925 21.8915
5.29215 -0.613721 -4.32225
17.3333 -1.92405 9.01256
13.7377 0.322674 -14.8504
-15.2261 1.38872 -9.7491
-13.3717 21.8157 -0.88093
-5.88145 1.06139 -3.90545
0.0298687 0.957022 14.6177
17.9498 18.1999 -14.9126
16.9342 -2.37306 -3.27144
-12.9078 -10.796 -13.9858
-3.89349 -19.0863 -18.6504
-14.331 20.6188 4.93495
-11.7524 11.4272 -0.635301
-16.9008 20.1984 0.6679
-19.048 12.1765 3.51672
20.2331 15.9106 -17.9658
14.8667 -14.8568 -16.378
7.11081 17.684 -1.18575
3.58958 -17.6099 20.0277
18.5808 4.33437 -6.61743
-13.0622 -12.0341 21.5264
9.44069 9.94526 -16.7896
8.04986 -13.2738 2.11264
8.321 -0.92297 -7.88737
17.559 -12.4847 3.35032
12.0872 -19.9148 -20.9144
-3.04699 -8.4803 7.84036
17.7718 22.0412 20.4762
-6.67728 -18.6766 3.21322
9.03525 15.2962 12.9792
-8.05353 21.5947 -12.279
-3.20929 18.4368 4.13703
-8.13145 -14.6626 10.0913
-7.74211 7.01795 -1.34778
1.76947 15.1404 7.95107
-18.3412 -0.209885 -18.3091
8.37978 1.92251 8.79018
-0.433001 11.2442 18.6007
-4.94564 20.4723 -19.6222
-5.49259 20.5909 14.0309
5.71461 -6.82624 12.2414
-3.08074 9.81594 -1.718
-9.17237 -8.19447 9.05301
11.7514 -6.5005 -17.8407
18.3136 12.9211 6.29439
-20.4951 2.2863 2.79412
20.756 -16.3492 17.3171
-13.6211 18.1018 8.63144
14.1025 19.8857 -8.27842
-21.9593 -17.1185 -10.9786
15.5318 11.9398 9.33568
10.7807 -6.65932 6.01469
11.0454 -13.5484 -8.98892
12.0125 8.69693 -18.7327
-3.39125 -16.3231 -4.77926
5.25006 -10.0613 -19.7929
10.647 -4.9771 13.3353
-4.68998 16.2357 1.15718
-10.6028 18.8996 6.17718
-4.25646 6.74886 7.87294
13.9398 5.1549 -8.70394
0.785525 14.4016 15.4267
-21.3871 17.4748 -12.437
3.68266 1.50039 8.26478
19.7073 -15.9309 -6.09413
-12.2733 -6.98449 19.9626
-9.83654 1.16148 4.63933
11.8524 3.54194 -17.5977
-9.55007 3.07836 -13.8876
11.1868 -0.46663 -0.337871
-11.9532 -11.7866 -5.76179
5.85855 19.0826 -6.02667
19.5346 1.6417 9.95742
20.3582 -19.3288 -13.652
19.7696 7.70898 -12.3007
2.89023 0.675253 -21.7263
0.0221145 9.81786 -15.4437
-21.5814 -14.9121 -18.6091
-10.8474 11.3301 10.3608
21.3334 -20.782 1.89054
-21.7989 14.9046 -3.72148
-14.3815 -3.87683 1.91841
2.04802 0.500876 -18.2257
-6.6319 -15.6526 13.6701
-9.18562 19.4565 13.1563
1.00007 0.577263 2.88284
15.7053 -7.75917 -7.86301
-3.305 14.3925 -13.9904
4.15608 10.8688 -0.152401
21.8243 12.5087 -13.0172
5.53142 -20.5664 -13.4131
12.418 16.1672 -8.92795
-11.1147 21.769 18.5249
8.46976 8.93131 7.47369
-0.185388 -15.1125 -1.31786
16.4275 -18.9703 1
-18.6201 -16.7559 -17.9099
-11.5624 -9.16031 6.11388
-7.56138 -3.66596 18.5454
13.8159 -3.50029 7.82182
-9.82734 7.30308 21.2012
-17.0768 -17.8025 7.90489
-9.1116 1.19212 13.1222
-8.36939 13.3859 13.3525
10.2907 -8.32254 -4.89228
-19.8528 5.54589 -13.5713
1.28791 -14.3233 5.6934
13.1238 21.3145 -4.63834
-17.1738 15.3323 11.4073
11.0104 10.3416 0.779885
-11.1396 -18.2175 4.72335
-8.36832 18.8666 -2.3573
-13.7507 18.5955 -2.36041
-9.1883 6.90458 7.04838
-8.67327 18.9605 18.3922
-19.3787 5.5776 -7.09424
10.5492 2.45419 17.6131
-1.47429 -21.3802 -20.2477
-1.62128 13.3357 -2.71921
-21.3955 9.33747 -20.5631
-2.27793 -18.1292 12.4027
-6.63919 20.5433 1.74766
-18.3083 -21.1131 17.411
0.549862 3.89423 -0.00984985
-15.6474 0.385848 -21.0017
-4.46146 0.782095 21.178
-3.89567 11.53 13.8576
-11.8425 13.963 -7.59142
-6.78018 4.23449 -4.77008
11.3272 -4.67061 21.1111
9.31014 16.2008 6.02005
-2.45421 14.1398 7.65961
-19.8438 -2.39244 19.1455
8.0316 0.618325 -2.34473
14.2394 17.334 2.82155
11.7784 18.1778 -3.31689
-14.3258 15.8692 0.608881
-0.998702 13.6512 10.6956
-13.1638 13.9683 -11.5802
-21.9929 -18.7297 -19.8064
-18.9981 8.28369 -0.558046
-13.8406 8.90227 18.8829
-10.158 11.1792 -20.6056
-10.4309 14.7181 4.12099
-11.0858 -17.9164 9.08251
-9.16272 10.0394 -3.20506
-8.16296 -17.7654 19.282
-15.5923 15.7981 -17.2083
-17.6632 11.2873 13.2582
-16.885 -5.15212 -7.08161
-12.0128 -17.8239 -10.5982
-18.8295 9.75528 9.66664
-15.5003 8.25585 12.3445
6.20519 -19.0333 -3.42661
2.77009 -18.8211 -13.8469
19.4634 16.6117 -9.68593
-19.0461 -12.9279 3.95201
-13.3766 -21.2208 8.16735
19.8904 12.3318 -9.511
-18.3421 20.5449 7.84249
-15.5314 14.3513 3.75852
-10.6944 -3.09365 1.71025
12.1929 5.93474 -3.85176
18.8402 0.449511 -7.12359
-13.9971 19.118 -19.5631
4.83832 2.64317 12.3495
-10.4179 -0.854111 -15.997
-1.03331 9.01903 -18.8344
11.4488 19.5606 3.28169
-2.39561 9.41637 -12.2792
6.01641 7.74583 -14.0182
-14.9011 -14.2505 16.5157
14.066 -2.61106 0.97044
0.856717 6.42164 18.6673
-15.5946 -20.0308 -10.3667
-11.5955 19.2742 -14.1824
-17.4737 8.12748 2.88037
20.92 8.03844 -6.70227
5.34645 -0.11309 1.24784
-9.32626 17.2413 -16.4067
8.75224 13.9699 -7.18044
15.5271 -2.6923 -19.4707
10.1939 2.09294 -20.9019
17.3791 3.13519 -14.8992
-15.9629 19.2158 -6.2284
4.74653 -20.0266 8.91983
20.9104 -1.6702 -11.9241
15.8969 9.73039 -18.071
-17.8255 8.51407 15.652
10.4326 9.03706 15.4989
-13.3265 14.0062 7.687
-17.4815 4.92741 13.7644
6.4135 21.1295 11.5934
-5.62723 17.3087 17.1477
4.84423 19.0981 16.3505
-16.0595 -2.37366 -1.03555
7.30661 -17.0042 5.52726
4.64417 -12.732 -1.91531
15.6806 -10.4821 19.0695
-16.5568 -3.05585 16.8039
10.3044 -9.20912 -21.5319
-1.9031 -21.3179 20.2535
-14.6615 1.31824 -15.1196
11.8613 21.3541 13.7437
-15.8953 -5.6022 7.86726
-10.0678 -20.1581 -14.0318
-0.304646 -7.75537 -5.40091
14.4992 3.32477 18.1594
13.7346 -5.44713 -13.3693
-6.7982 12.9224 3.63765
-6.72939 12.186 -4.14276
-16.9752 13.6112 -0.889857
-11.9139 5.19206 10.945
6.56644 12.2731 -14.2692
-16.6269 2.45346 17.9054
-1.59234 20.636 5.94882
5.62725 6.30317 13.5675
13.9238 -9.02895 16.1752
2.78068 -17.6505 11.9378
-18.0271 -7.51986 -12.6539
16.5395 8.07658 21.1667
-17.2259 3.24914 -3.00039
4.75255 1.24422 17.6274
19.8557 -4.77336 12.8785
-3.90289 -14.9652 -12.9099
-21.7537 13.187 -0.471085
-17.2343 2.89262 4.21603
9.90134 -15.893 9.08205
-2.61955 9.6655 9.17896
15.1623 -21.4551 14.4044
-17.7882 -16.1006 1.40809
2.3687 16.6684 11.9337
16.1997 -4.48333 3.97838
16.3 18.5113 -3.53757
-17.9492 -12.3876 -20.9066
7.26736 19.1621 -13.5242
-19.7092 -0.392336 4.66362
16.8125 -19.52 -5.30638
18.7728 11.4553 17.1806
-17.0802 -9.24077 -7.99572
14.8583 -11.8232 11.0566
-14.7119 -20.6322 13.9584
-6.39114 8.09783 4.41833
9.62939 11.2231 -3.71519
-8.35611 -4.03739 21.6498
-15.1603 -11.6566 1.5766
-1.80439 -21.3141 -1.70107
12.0887 -13.2957 0.695832
-4.27526 18.1009 -14.1544
-14.5823 10.0459 -10.364
9.21174 14.5713 -2.7412
21.8105 1.53269 -10.5346
-6.67045 -21.7237 -3.35351
13.663 -0.343008 -10.4963
-6.4127 2.97717 -18.7838
6.11719 -15.2104 12.1155
14.0578 7.14311 2.22885
-18.5949 -0.274632 12.9709
12.6149 0.698253 -3.81894
10.0884 14.212 19.771
16.6764 13.7608 -2.31996
-11.6753 -12.0089 17.2043
-20.5106 -0.716229 -0.236664
12.5776 -7.65808 2.08246
-8.15743 -13.652 -8.4165
19.7794 9.28581 19.9946
11.9126 -4.35247 -1.10135
3.20717 4.59036 20.6322
-13.66 -10.0584 10.3173
-15.7059 12.1651 -13.0023
-13.0014 6.14644 16.4127
4.83312 2.84679 -19.4413
-8.59271 16.4723 -7.83344
1.87968 21.5578 -0.526892
-7.67098 -15.2409 2.53228
4.50572 5.79524 10.3188
-20.1896 -16.0256 8.81396
-6.13451 -6.6196 5.40633
21.3986 -4.93464 -13.6311
-7.12329 -13.6024 -11.6191
-0.250543 -19.1856 4.57111
19.19 -5.607 18.7103
5.14881 6.6993 5.43885
-12.3606 -12.4556 13.517
-8.11791 -6.14291 -8.9059
13.0893 18.6402 8.91533
21.1277 -19.6544 -4.08916
-6.55404 -8.99759 -3.0225
5.98607 20.7487 3.40146
-15.459 -8.27056 -14.9197
9.02657 -6.67809 -9.56066
7.97165 -17.0707 -11.455
-6.16251 10.0994 7.93815
-14.5238 7.42101 -6.52126
14.241 -16.9457 3.85819
18.5691 21.8797 13.0097
13.9189 -16.6868 -6.30253
18.192 -9.91004 -9.97321
-1.95923 -21.5783 1.68404
11.6382 13.259 10.2593
3.49653 -14.9846 16.5746
-9.98601 21.4058 -7.2048
5.80812 13.1709 9.0238
9.56756 8.57854 -10.6641
21.6287 -13.2272 -8.49951
-12.4712 -5.52594 -2.27829
-18.6734 -5.60641 -17.4363
5.20815 -5.96324 -9.621
13.8916 -16.5857 -21.9678
18.7969 -19.6308 -18.3261
20.382 -5.46354 8.47633
-2.58495 -9.53003 -2.09194
8.11551 18.1596 -19.3506
-20.7981 -20.5385 8.38971
6.4506 7.7162 0.990826
18.8257 14.1543 9.77386
-15.0512 10.8427 1.62877
8.0494 -22.0634 -0.950581
-21.7858 10.3789 12.1726
10.6597 -9.2242 -12.5549
-13.0992 10.7551 4.86651
14.3996 -17.6817 13.8257
-5.3324 0.0184988 3.79033
-14.4874 -6.94753 -4.36304
-12.2173 3.57725 -16.9844
-5.93851 -2.26577 6.05463
-1.99548 3.94398 -15.8828
1.42218 18.2318 -1.78485
7.62276 -5.77367 20.7536
-0.861226 -2.682 22.0331
-15.9272 -16.2383 -6.49226
-21.7415 2.55229 12.8328
-11.9262 13.7917 15.6994
-8.43658 -4.56894 -5.31974
-0.268578 1.55529 18.5724
13.619 -16.9311 8.80811
13.1867 -19.6997 17.6716
-0.23927 21.1237 -14.8635
16.5758 -2.53067 21.291
9.3049 11.1607 -20.5283
14.9447 2.51953 -17.1606
18.9347 -3.86966 1.28304
19.8403 4.29754 -10.5865
16.1235 -6.14302 17.4949
-20.1691 9.23399 -8.18457
-8.86552 -4.62287 5.29474
17.4089 7.8684 0.588923
14.6685 9.92091 -10.695
5.26511 -16.2484 -0.463361
0.487983 -12.3107 -11.2313
-8.0311 -19.3517 0.025733
-6.44517 4.50301 -13.1838
5.02512 17.0267 -21.4627
-14.4343 -13.8282 -0.789109
-9.02202 -14.982 -17.9917
-17.484 -8.82492 -3.48145
-5.68642 8.31108 -14.0749
19.5267 14.8849 -14.9853
-2.98443 -20.371 15.3486
-11.8493 17.5152 -5.79174
20.5429 20.1095 19.3593
0.456908 20.063 21.0455
-18.098 -16.5903 14.8124
-1.38628 -9.39903 -18.9437
-15.1702 6.79872 -2.19164
-5.1761 8.80972 -4.90639
-5.28944 -17.5968 -1.73338
-1.17086 -4.88465 8.65226
-10.5409 -5.5499 -13.4338
-18.5991 -19.3918 2.94587
17.6526 -8.72508 -19.1299
-14.3034 12.7459 -5.93226
18.8874 -15.4695 -13.2782
-9.67685 6.39671 -19.4374
20.9116 0.961283 -19.8677
4.00905 -3.60243 -16.2538
-21.7653 18.7749 -9.28326
16.4355 14.2623 3.33049
17.1818 1.51786 18.9896
-4.8917 15.6469 -17.4073
-7.26619 2.66799 9.65677
-7.30634 14.3273 -21.0362
-0.768945 -18.6585 -11.0183
20.1022 -16.8952 -2.46916
-20.6907 20.556 -6.68298
0.811345 17.3813 -14.4027
6.93168 10.4367 18.3555
-4.44762 -3.40015 2.82434
17.7362 10.7842 3.70069
3.79673 -3.22325 8.28608
7.80603 -4.53876 -12.687
2.25097 20.5272 10.9771
-14.776 -13.2581 -19.0383
-4.46361 1.56258 -7.94525
-21.4528 -2.66287 -8.39692
-1.17267 -9.36373 1.6263
-16.8891 -9.92775 13.4694
-1.80563 -0.881272 9.99059
7.24619 -11.4809 5.73196
8.54365 -5.84189 9.55058
19.927 -14.9631 7.30808
-0.890078 -13.1325 1.6146
-18.5467 20.2316 11.3459
-11.584 4.1677 -3.98473
12.3711 21.1495 -13.1219
4.66426 13.9821 -3.49665
5.85695 -2.46363 11.8614
-14.2696 -21.4857 -13.2865
-17.7896 -14.8309 -3.32577
20.5401 6.0147 0.548538
19.866 -7.4195 -6.27768
-2.32887 13.977 -20.4113
13.0692 10.9628 -14.2706
8.62968 -2.3083 1.10624
-0.367059 -7.30261 16.8383
-20.859 5.80074 -3.45629
0.149713 -19.5243 -6.91214
5.39555 -1.77691 -10.8057
-4.43457 14.9641 19.9767
2.38394 15.3774 -0.0602421
14.8557 -21.2577 6.55522
-20.9483 5.84168 15.0961
-10.5928 17.5199 21.7806
-2.31691 -14.2567 7.51714
20.4123 17.5869 -6.10838
-21.7559 3.35871 -16.5518
-6.30038 12.5826 10.3353
1.89259 -2.02298 19.8283
-20.5276 13.2131 14.9948
-20.2539 -4.40133 -21.8224
-21.7954 2.75975 -5.5175
14.4027 -9.85338 -20.0884
2.6695 11.2116 -9.32756
-14.9837 -7.60111 17.032
17.5039 -4.9409 -14.2881
17.6845 -16.6837 4.89468
11.4623 -7.99909 10.904
4.9054 -7.74968 -12.8856
-18.145 -16.3855 -12.213
-3.30369 18.9109 21.4988
-14.6153 5.29358 -14.1749
9.30337 15.5179 1.08534
0.650022 -18.1159 -0.112
-0.974606 17.1384 0.503926
18.5895 -9.76464 9.03001
-15.221 16.3044 14.9763
12.793 13.018 -22.0317
0.816926 10.2804 3.78374
12.6827 -14.6298 6.18905
0.261038 -15.3252 -21.0858
-18.8928 -19.4917 -1.4151
21.0399 -7.88697 -19.7587
-3.94246 -1.39683 17.9208
-8.35008 -6.82825 -17.145
5.39454 13.2483 21.6676
-0.316261 -15.5622 -17.1719
4.75949 -4.15552 18.519
-10.514 19.0673 -10.051
-4.17253 -21.9827 9.7939
-11.9453 -13.8661 8.01096
-18.8383 -19.3812 -9.9779
-9.36653 -20.9132 -21.1558
-13.7408 -18.1153 0.155063
-1.48315 1.11249 -3.2756
-7.08403 -4.59475 1.07602
-10.3638 1.58499 -20.5598
-1.76875 -12.0151 -15.0292
-1.70876 -1.9556 5.69112
15.3616 -17.551 -13.3708
-11.5126 -2.89931 -18.5771
1.1983 14.2379 -11.9096
6.03475 -9.02703 8.58879
0.32551 -11.221 -3.81406
17.3493 20.2185 -6.62753
-2.56163 16.8522 10.5125
11.2861 -18.8191 -9.60638
-1.16448 1.83244 -8.31811
11.8451 -20.5915 7.39847
-11.5027 -9.83141 2.24579
-5.18691 7.53697 15.8919
-11.073 21.1068 15.0858
-16.9012 10.6871 19.6704
-11.1952 17.5069 2.15881
18.59 -3.94214 -9.54178
-16.3939 17.5901 20.4671
10.8092 -19.0286 -1.95084
10.6983 5.87639 15.8085
-15.1101 -15.4453 -15.71
-6.19894 0.523409 -16.2146
14.0512 -5.90229 -19.9025
3.74339 9.84845 -5.95213
9.30108 -15.3057 14.5936
8.18178 -19.6284 10.126
-10.2464 -5.11518 16.9504
0.689166 18.4862 -20.0644
-17.3106 12.4201 -8.45286
-2.71765 -0.86065 -17.6308
14.0661 7.92083 15.6654
-18.5231 18.7535 -3.76039
-8.02796 10.1329 1.4986
16.2732 -17.4721 17.739
7.59472 -18.6156 1.38524
-19.4606 3.24372 8.74754
-5.38109 14.9426 13.4163
-18.7475 -7.89456 9.25319
-11.3769 1.85261 9.29516
11.3186 -1.7906 17.441
16.4559 6.09776 9.41859
-3.16399 5.66964 -0.99978
-17.6245 -4.39879 -3.875
10.6953 -16.1924 3.14526
-16.1473 -13.1948 19.9116
-1.68845 -7.00092 -21.8278
7.7915 5.59819 -17.4978
-8.67354 16.5096 8.737
5.7246 9.69171 3.77469
12.0809 19.0091 16.6981
9.54594 -21.5326 3.55549
3.3331 15.9927 -8.49895
-20.7725 19.2998 -0.862526
15.3244 -7.40702 10.1619
14.7471 -10.204 0.158979
-19.1038 -13.6656 -9.87377
8.3148 -12.8736 -11.1033
20.9041 17.4526 10.3899
7.03068 -19.2394 21.0716
-10.0701 -15.3024 0.0793644
14.3353 7.44163 -13.848
-6.99421 -10.595 -18.8024
-3.73917 21.0997 -4.34444
16.8738 15.3087 21.4093
-10.0875 15.3735 -12.5253
0.468411 7.43627 6.44335
-11.7654 -15.4811 -3.48906
20.723 5.34535 21.3386
-4.78509 -21.5566 -15.309
3.24906 1.97423 -6.58112
10.1686 9.04024 3.98576
5.67104 -7.26542 -5.96195
-20.9769 11.1074 7.88965
-18.6032 1.90978 -12.3981
-20.3298 6.27185 11.6868
-6.57356 -13.7175 -15.4163
3.2599 -5.79254 -1.74786
-17.2687 19.8538 -17.5268
-6.14921 -0.882269 15.1946
-4.43327 12.0981 17.0571
-4.32087 -21.2364 5.0816
-8.99449 20.0451 -19.0336
3.9401 19.2265 -11.2853
-3.9648 -7.15469 18.717
-8.89868 -20.0858 9.41993
5.9143 -1.15838 -21.1126
-15.1077 12.3483 16.1067
15.057 8.4738 -3.35986
2.18457 -21.1765 -10.5836
-6.746 -8.66448 17.228
-7.326 -0.935818 -7.57094
-13.1588 -8.6334 -8.92312
15.5831 -20.7457 -9.32957
-3.67006 -5.11438 -16.5701
-18.9417 11.5746 -11.5386
16.6449 4.68954 -3.25046
14.2349 14.5061 -12.1228
0.660293 -5.56242 12.3656
-5.68783 -18.0925 21.6847
-6.0138 -19.4732 -6.74119
10.7995 -2.2995 -14.9155
-20.305 9.41786 -14.2057
-7.50958 -17.4627 7.63317
-3.80029 -6.20997 -3.16785
-9.13354 7.5182 -12.4168
4.05465 -16.0987 -15.8231
-0.962094 -2.54802 15.7555
-8.41354 4.41739 19.2185
16.597 -17.6339 -19.6696
-5.95612 -13.6571 -0.568773
15.6083 17.5705 12.4301
-0.908482 2.43076 6.89562
15.1924 11.5389 16.3292
-1.57877 12.2895 1.65855
-21.3608 -16.1059 -0.00418719
20.9412 -1.00446 19.5123
4.01198 4.21843 -15.0738
8.72305 5.63077 -8.64238
-3.17449 -14.5027 15.8099
-11.1705 10.0625 -7.88893
18.8437 -1.03285 5.70542
3.32001 -5.5033 14.7699
-5.89773 8.47451 11.6282
0.526227 4.51898 -12.529
-12.5074 0.994422 -6.07159
2.31017 5.4282 13.1755
8.73552 17.6575 19.9725
-19.8289 12.7966 19.1559
6.56417 -7.66581 1.30695
8.82733 3.43359 12.4036
4.1079 4.71489 1.31676
-11.5131 13.3735 21.4806
9.50009 -17.9836 -5.56472
13.6761 5.20064 12.5497
-20.2996 -9.32549 20.2194
3.25972 14.0973 4.85149
7.73648 6.71086 21.3376
11.8435 14.5862 -17.4637
16.7716 -17.8614 10.6413
-18.1743 6.75819 -20.7717
-9.49853 7.20526 16.2073
2.36413 -8.97253 -16.2922
12.1784 9.18094 10.3074
-12.0898 9.78829 13.4958
4.30856 20.4136 20.7629
-19.4623 14.1093 -15.5774
-4.12508 -14.8145 10.8065
3.52059 13.4732 -18.5349
-6.96911 17.1265 3.81262
4.74452 18.7064 6.14336
0.0299188 -7.61991 6.23109
14.7487 -15.31 -1.35118
-11.7839 -15.4623 -15.9479
-13.4851 8.66418 -17.7717
7.10556 10.6062 13.9088
11.4472 5.20808 9.50707
-18.8263 -3.12529 -10.7891
-18.8838 19.9907 20.207
-13.2208 13.2433 -19.6808
14.971 2.59642 13.731
9.53979 -6.16938 -14.9386
21.6531 -8.70917 8.40627
3.36489 -3.08144 -5.90138
-3.10808 -17.4383 18.5288
-18.1732 -2.76528 1.98409
16.0901 -12.0558 7.76913
16.1774 2.97584 -10.6224
-5.11594 5.34347 19.7887
-17.9789 -6.47216 19.71
3.1268 9.8712 7.04374
12.3189 -10.7432 -3.83933
-19.2616 -12.6621 18.0453
10.9413 -19.2775 14.9463
11.3513 -11.7411 13.2946
19.1155 7.79095 -16.1458
8.58551 -12.5302 -20.5564
13.3885 -13.4624 -19.9885
20.4286 15.3916 17.8017
-9.70566 -9.64075 -13.8652
8.39619 -9.44812 16.8659
17.8747 -14.6847 19.6752
20.8983 -19.732 -7.94048
6.75163 1.16317 -13.5216
-8.11125 0.149225 19.0996
2.74851 19.2507 2.37817
-15.9299 -2.42493 20.5536
2.07565 -6.0815 -8.34853
9.43954 19.2841 11.7806
16.5698 -10.0377 13.8069
19.0753 -10.6614 18.8316
6.77485 -4.58798 15.4938
-19.1219 -19.7685 -21.6411
-4.15381 -10.0013 14.3107
-16.792 -9.32195 4.00768
-19.1997 11.3484 -3.76729
18.9403 -8.62747 0.216181
-11.3887 2.71821 19.4325
21.974 -19.8089 12.6995
18.1334 12.1014 -13.3762
7.49809 -9.85993 -7.90675
9.13913 -9.60098 -0.985445
-13.3179 -9.63869 -18.9774
-4.28942 6.6486 -16.8651
-20.5267 15.2081 3.84104
7.27047 -10.6081 -15.72
-14.7372 -4.82946 -20.7074
-14.3225 1.35098 4.17418
-19.2955 16.9064 13.6237
19.4166 4.47196 12.5205
7.32046 -4.31777 5.82101
10.0804 1.30352 -10.2351
9.90933 21.6901 18.0355
9.88867 -14.8843 -2.20812
5.34893 1.07455 4.81287
-11.6662 -13.2397 -10.6047
8.23654 5.54097 4.61997
12.9544 15.7829 7.2142
-12.987 -2.52379 17.2295
-17.6719 -20.0295 -15.1632
13.2203 12.4414 -0.821085
15.2173 20.9851 -17.1138
-15.4934 -16.3724 -20.7364
-1.90741 19.6494 -8.12601
-16.7562 13.522 7.10405
-10.5444 -6.31775 -19.9046
-15.3964 -18.2559 -2.79613
-9.04262 16.0178 -4.30733
-1.8681 -17.3537 -14.0692
3.62996 12.6855 12.4441
16.6349 17.1732 17.799
8.49117 -17.6199 -17.3363
8.78312 11.934 5.042
-2.88827 -14.01 -7.68507
-11.6918 -15.1284 -8.04984
-0.105435 -3.12241 -7.58742
10.4706 -3.53248 -5.93554
20.04 10.5637 0.974385
-8.85982 15.3059 16.7708
-18.9198 19.7904 -11.2257
-9.4735 0.76478 -3.3161
19.5356 -12.4824 -19.5065
-19.1872 6.85767 18.1552
12.5537 -20.5867 -17.1264
16.9109 16.9042 -12.0651
9.55082 -8.35631 2.83305
-16.3722 7.95596 -13.8069
-13.7908 19.941 -10.8265
-19.6313 -18.5176 -6.09233
-3.47245 -12.6508 -3.3586
13.823 11.9903 -5.13214
8.31635 16.2943 -16.2512
0.734472 -14.6162 19.8255
17.3197 9.08745 -6.82691
-14.6164 8.47492 -21.8621
-3.79201 -11.4205 -20.7938
-7.28012 -0.817412 0.960675
17.8408 -13.7988 10.6669
-4.88359 -6.47358 -10.4845
-10.0264 -1.90914 -10.8591
21.2828 4.31315 7.60837
-2.91559 -10.4434 -6.48732
7.24076 -6.15205 -19.704
-15.1413 5.25391 1.16565
1.3819 8.83222 -12.2835
-5.55011 -14.3549 6.50725
-20.0897 -17.8793 18.7649
1.94617 -9.79674 -7.10679
-18.8182 -12.0163 0.437717
16.6979 14.3983 -18.605
-15.9877 10.8807 -16.9429
0.523005 17.8964 -9.91261
21.5458 -11.1143 -2.64455
-4.18553 1.4815 -12.523
3.3964 -16.6085 -20.7404
2.3804 -9.78122 13.5712
-7.81171 -20.7852 -17.9976
16.2071 16.4936 7.86089
18.8635 12.1921 -5.28472
-10.8768 -16.2353 12.9098
-15.3203 -19.2385 20.9393
6.61151 16.0458 3.14331
17.1863 -13.6464 15.4636
-15.1987 -6.33351 12.9279
-8.68786 -11.8924 2.67673
10.0441 -11.1989 8.92634
11.2762 6.83436 21.0861
18.5013 -0.987993 -17.4986
11.7745 -12.2658 -16.5645
0.547558 -16.2249 -6.36937
-15.8669 15.5033 -3.56884
-20.3224 19.9731 -18.055
-17.0647 -1.27501 -14.9747
-6.33007 2.71452 0.182996
4.45157 -7.08147 20.9829
15.3048 16.0756 -6.44217
-7.09682 -17.403 -15.1073
-4.46913 -7.01062 -6.83676
-0.987752 13.1041 -9.47768
2.32747 -20.6361 19.6605
13.3627 15.1604 19.1344
-17.0566 -5.79427 3.96031
-16.1003 17.6793 -9.36001
2.46132 -19.0373 -2.6383
-0.686289 -2.89282 -12.8165
3.42629 -3.21261 2.71785
-15.117 -14.797 6.89538
-18.4336 -19.5142 12.2554
-13.6584 16.9552 4.811
-1.93899 -6.3151 0.809904
10.9043 -16.491 18.0691
2.35939 9.67392 14.6055
-7.02732 9.40735 -19.5941
17.1014 -1.34293 -13.8433
-13.1838 -2.44478 12.1738
-0.89687 -3.70279 -3.34693
-9.95562 -7.00707 12.4996
19.8058 -4.0538 -5.33719
-5.33065 -17.3671 -9.80593
5.88989 15.8387 15.1822
18.0639 -17.1151 -8.93463
-11.0196 12.9132 -14.9637
20.88 -19.8313 6.09145
4.79328 20.168 -2.04531
-16.0628 18.0624 -13.6672
-2.07922 -6.93049 -14.126
18.0344 21.449 -2.50884
-15.0364 11.193 10.5395
17.4401 14.6547 14.5036
13.3905 -16.1721 -9.6861
12.3074 -10.8651 5.93238
-9.69207 4.5103 3.72418
9.93265 -2.55433 -20.9838
-3.67201 2.4441 17.2377
20.3407 -12.8084 16.3471
-14.3031 -2.32081 -4.10972
-20.6304 -11.8019 -17.5205
-13.5346 21.8224 -4.31643
7.77566 21.085 8.04638
-6.86607 -7.73767 13.1776
-19.8799 -2.51035 9.72197
8.92328 -21.7398 -6.61452
-1.21635 7.98228 15.2279
-2.64334 -11.2322 4.03369
-0.0288211 12.5413 -5.42169
-13.8791 -18.6345 11.3173
-2.50843 4.63099 -21.0151
1.80266 1.24383 -12.2942
4.1318 8.28503 -19.2369
15.9497 -12.5766 -4.48259
-0.636278 1.48209 -21.8178
10.2778 17.1006 -12.8667
15.5698 -20.7395 9.74571
-4.77864 -3.14625 -6.27917
2.82059 20.114 -5.26265

!VX, VY, VZ
0.104326 0.0571411 -0.130316
0.024204 -0.120916 0.0467137
0.0249064 0.147489 0.188048
0.032652 -0.0101686 0.13475
-0.249039 0.0606579 0.0667283
-0.0378241 -0.113219 0.165403
0.22626 -0.0472799 0.110929
-0.257167 0.166716 0.195237
0.0443598 0.154961 -0.0190506
-0.0399885 -0.141929 0.0532842
0.219619 0.0829209 0.0449525
-0.0245221 -0.160703 0.00327342
-0.0144783 -0.175432 0.397282
-0.0796902 0.0200694 -0.136263
-0.0984235 0.0692947 -0.0652999
-0.0518093 -0.0458069 -0.053183
-0.000561918 0.0783249 -0.0457703
0.164176 0.118528 -0.0779728
0.0249231 -0.0857852 -0.0179211
-0.0336796 -0.00224306 0.014909
0.0369192 -0.226168 0.020874
0.127813 -0.0848787 0.153578
-0.0902271 0.0439743 0.0240429
-0.0768782 -0.208565 -0.105732
-0.159528 -0.00642622 -0.101496
-0.021806 -0.218336 -0.0692908
-0.149358 -0.1605 -0.108199
0.0822727 0.117928 0.163586
-0.142627 0.163852 -0.0427594
-0.219267 0.0648062 0.0998852
-0.0205361 0.0238534 -0.0988968
0.0403549 -0.0610666 -0.209923
-0.0736347 -0.109245 0.0148763
-0.1517 0.0200104 0.045886
-0.122175 0.110899 -0.204036
0.0183703 -0.0751728 0.280034
0.155636 0.0697625 0.0543201
0.0408255 -0.0255773 0.00645082
-0.258459 -0.00321406 0.10932
-0.104696 -0.0720206 0.168014
0.0989922 0.152392 0.141155
-0.0339855 -0.0107647 0.0834944
-0.242926 -0.0887445 0.214792
-0.0125247 -0.102753 -0.172215
0.0618879 0.10698 0.284601
-0.0322699 0.229917 0.0693936
0.126434 -0.056782 -0.0124297
0.0273146 0.0891156 0.031832
-0.0417268 -0.294204 -0.103884
-0.0925203 0.0505666 0.108925
0.263573 0.0111105 0.0647135
-0.077435 0.0335815 0.125759
-0.0600796 0.0306668 0.151735
0.128449 -0.241137 -0.168293
0.141802 -0.0934306 0.097854
0.164844 0.119919 0.0953407
0.17234 -0.108832 0.113614
-0.157597 0.0112852 0.0114962
0.105439 0.12938 -0.0810867
-0.280437 -0.0221415 0.0291286
-0.115439 0.0234607 0.200649
-0.0564323 -0.0372038 0.0490953
-0.133654 0.153767 0.134143
0.13805 0.105041 -0.0113218
0.199479 0.161603 0.0457064
-0.282777 0.036439 -0.0223014
0.116224 0.17995 -0.174262
0.184635 0.0136614 0.0659148
-0.152634 -0.0356776 0.280638
-0.00670322 0.0735657 0.120045
0.162512 -0.0892551 -0.0346579
0.0967988 -0.0259023 0.0218364
-0.0631416 -0.151163 -0.0157511
0.0248213 0.00781884 0.0621965
0.184319 0.150669 0.0904314
-0.0955671 -0.0337888 -0.304922
0.163541 0.0548782 -0.0969516
0.034508 0.141508 0.0933672
-0.0745591 0.0535779 0.0668719
0.0133347 -0.130409 0.0355609
-0.150383 -0.0188846 0.0549859
0.0551195 -0.279969 -0.146434
0.0327122 -0.150057 -0.101745
0.0728945 0.112558 -0.174311
0.119647 -0.190764 -0.0261291
0.0540237 -0.159672 -0.0603035
0.0711019 -0.0290206 0.100976
-0.118067 0.090104 0.211704
-0.0877345 -0.0496317 -0.0374398
0.18867 0.169925 -0.0203098
-0.0608233 -0.0280901 -0.0669228
0.206575 0.0676196 -0.0137345
0.148853 0.031951 -0.0699914
0.106612 0.0413671 0.11007
-0.168604 -0.148248 0.0284115
-0.193839 0.0362312 0.0492959
-0.0636294 0.2066 -0.100118
0.0386693 -0.0259341 0.118525
-0.140647 0.036545 -0.0586758
-0.150097 -0.146513 0.00090414
-0.118374 -0.108489 0.232465
-0.123253 -0.0972471 -0.0116507
0.130547 -0.026711 0.109488
0.087179 0.186015 -0.123173
-0.0297257 -0.017942 0.151107
0.0159559 0.00842886 -0.0550856
0.019091 0.0915809 0.0668671
-0.0658973 -0.265759 0.12638
0.198068 0.20988 0.146197
-0.117426 -0.0694565 0.124556
-0.0759135 0.230493 -0.0335961
-0.040529 -0.0408293 -0.0645511
0.0726486 -0.0720765 -0.0124951
-0.0807257 -0.0459269 0.0333731
0.163285 0.0247515 0.101076
0.0884291 -0.0930567 -0.00321993
-0.0191043 0.0192937 0.0576494
-0.0544989 0.00469807 -0.000187193
-0.00519944 0.0471568 -0.141474
0.0810304 -0.0197805 0.084982
-0.0577117 -0.00311765 0.0820781
0.126898 0.196896 0.134344
-0.208012 -0.387801 0.0622829
0.0430813 -0.0234705 0.00652515
-0.335191 -0.0766766 -0.0523722
-0.0455252 -0.269542 -0.1338
-0.109073 0.0889912 -0.0222531
-0.109958 -0.00711725 -0.139073
-0.029386 -0.104884 0.0214655
-0.241505 0.0188486 -0.0272229
-0.00310794 -0.0237691 0.170489
0.285587 -0.252241 0.0919496
-0.124513 -0.0772763 0.0280876
0.306437 -0.14924 -0.121864
-0.123538 0.101662 -0.0619222
0.140153 0.25596 0.117576
0.00996876 0.172334 -0.026301
-0.113875 -0.018145 0.053495
0.109329 0.132785 -0.148611
-0.0108271 0.0710464 0.150003
-0.0784905 -0.114622 0.265689
-0.0610861 -0.072063 0.0375442
-0.0102309 0.136145 0.156345
0.117347 -0.086986 -0.0199256
-0.0525374 0.00825895 0.259607
0.0920587 -0.0396939 -0.119526
-0.154666 0.270658 0.0939426
-0.0975745 -0.0768449 -0.0774178
-0.141921 3.03963e-05 0.0391088
-0.0061839 -0.141682 0.0347566
0.0381244 -0.0141785 0.110878
-0.133548 0.0158097 -0.00942639
0.0671744 0.0895788 0.238182
0.0933324 0.134161 0.0207541