!XOLD, YOLD, ZOLD
13.6856 -14.4162 24.1029
14.6049 -14.2185 24.2816
13.2568 -13.5608 24.0772
-14.4481 -14.3952 -15.6833
-13.8303 -13.9147 -16.2343
-14.1425 -14.2411 -14.7894
24.1907 -1.99229 -14.568
23.5311 -2.54048 -14.1429
23.7669 -1.68437 -15.3691
20.5436 20.1585 -14.0963
19.9803 20.8709 -13.7939
19.9357 19.4817 -14.3939
0.846539 -2.79333 -8.32507
1.20631 -2.47185 -9.15178
-0.0981719 -2.83338 -8.4739
10.8586 7.39106 19.0495
10.3733 7.54459 18.2389
10.5092 8.03622 19.6642
-14.2699 -17.1115 9.54864
-14.8524 -17.7745 9.17799
-13.9208 -16.6466 8.78822
-24.5569 -12.4463 -23.76
-24.2881 -12.1238 -24.6202
-23.7463 -12.7552 -23.3554
-13.0141 -8.60901 -4.77393
-12.9824 -7.67856 -4.55149
-13.8585 -8.72284 -5.21014
0.19666 3.1236 -2.72873
0.544922 2.70663 -3.51682
-0.74851 2.98111 -2.77953
23.654 -23.7134 10.3536
24.4077 -23.4737 10.8927
22.9138 -23.7094 10.9606
19.7189 -15.2121 -24.4378
19.0922 -14.5201 -24.2268
20.141 -15.4163 -23.6033
-1.83179 14.169 4.97886
-1.81819 13.7577 5.84309
-1.01605 14.6681 4.93775
4.52609 1.16898 -18.5479
4.95131 1.9027 -18.9918
4.60719 1.37265 -17.6161
8.237 -6.1347 -4.75642
8.48615 -5.60893 -5.51651
7.31174 -6.33584 -4.89662
-10.1764 2.04179 -3.5442
-9.44138 1.78741 -2.98633
-10.0997 2.99261 -3.62356
-2.01462 7.24182 -15.6697
-1.67875 7.812 -14.9781
-1.36264 6.54493 -15.7439
-9.21738 -10.7371 -4.31169
-9.91449 -10.5004 -3.69992
-9.50602 -10.3833 -5.15297
7.85849 21.761 1.21224
7.00817 21.841 0.78006
8.48581 21.6776 0.494077
-24.5973 1.10179 9.39611
-23.8205 1.08388 9.95506
-25.0064 1.94728 9.5807
-20.3817 -1.26259 14.4153
-19.55 -1.19092 13.947
-21.0187 -1.49324 13.7392
-2.94848 -16.7627 -17.6663
-3.42493 -17.5434 -17.9486
-2.16527 -16.7475 -18.2164
21.5536 -18.4189 -22.152
21.1255 -19.2732 -22.0962
21.0992 -17.9687 -22.8641
-3.54808 -16.9815 7.73919
-3.40041 -17.1954 6.81795
-4.47607 -17.1671 7.88287
9.48768 -21.5669 -13.6146
8.73327 -21.1671 -14.0473
9.20225 -22.4571 -13.4086
-23.1964 3.70093 19.5637
-22.6967 3.24097 20.2382
-23.7048 3.01453 19.1317
-21.9442 -22.4113 5.79845
-21.0214 -22.1682 5.87258
-21.9461 -23.3668 5.85556
18.376 21.7535 20.9496
18.1209 21.5065 21.8384
18.6434 20.931 20.5393
-13.2961 7.60149 -12.7069
-12.8613 7.09203 -13.3907
-12.6855 8.31254 -12.5125
6.83602 12.5061 -19.5949
6.03751 12.0356 -19.3558
6.74196 12.6777 -20.5319
-12.6722 13.462 6.44248
-13.0884 13.6094 7.29175
-13.2791 12.8888 5.97405
21.0096 -22.5981 -23.8708
20.9766 -23.3423 -23.2697
20.6664 -21.8634 -23.3622
-6.82941 -22.6739 -11.1566
-7.22663 -22.5733 -12.0216
-7.47504 -22.3079 -10.552
23.4714 9.28832 14.2053
22.5708 9.06373 13.9714
23.7947 9.79249 13.4586
-21.8273 18.202 -5.66446
-22.2667 18.8931 -5.16889
-21.4066 18.6592 -6.39261
-8.97088 -21.5299 15.4704
-8.93524 -22.0275 16.2873
-9.59721 -20.8273 15.6444
21.5147 23.9861 6.97633
21.3044 24.9024 7.15626
20.7596 23.6579 6.48809
-23.2671 -19.1797 -8.57117
-24.0091 -18.7952 -8.10448
-23.447 -19.0035 -9.49464
19.1684 -7.35527 -10.9897
19.1204 -6.51419 -10.5352
18.4048 -7.36012 -11.5669
-21.6022 -4.36352 6.01356
-21.6187 -5.04011 6.69045
-21.4294 -4.84034 5.20179
-16.1715 18.3317 16.629
-17.112 18.4975 16.5643
-15.7761 19.2027 16.6638
-7.02023 -10.88 -6.52576
-7.93943 -10.7088 -6.32076
-6.9355 -11.8319 -6.47168
13.0033 16.8312 17.4244
13.2702 17.7403 17.5605
12.3904 16.8685 16.69
-14.1569 -4.89724 6.45203
-14.1272 -5.44145 7.23892
-14.5144 -4.06139 6.75165
12.1589 -20.9147 -13.625
12.4584 -21.7642 -13.949
11.2086 -21.0057 -13.5558
9.30905 -5.90302 3.98195
8.84418 -6.46293 4.60375
8.97196 -5.02352 4.15246
5.69086 -19.5831 -4.55964
5.85601 -18.9664 -3.84644
5.9908 -20.4269 -4.22159
-2.41162 18.381 -12.8201
-3.09905 18.9457 -12.4669
-2.67673 17.4956 -12.5707
7.37159 24.1595 20.0649
8.21909 23.9675 20.4662
6.95658 23.3035 19.9592
23.4278 -19.4102 17.3239
23.6483 -18.8462 18.0652
22.5513 -19.1294 17.0611
-21.421 3.66203 -19.6589
-20.534 4.02139 -19.6433
-21.9903 4.42292 -19.5439
-2.03588 22.2085 -9.53751
-2.6981 21.9676 -8.88971
-1.6366 21.377 -9.79323
20.1074 6.38746 1.68767
20.5477 7.23626 1.73191
19.3108 6.503 2.20568
7.29326 6.17387 11.5878
7.48682 5.58579 10.8578
6.59241 5.73515 12.0701
-3.27703 -21.8012 12.6402
-3.97301 -21.4191 13.1749
-3.48729 -21.5336 11.7456
10.9495 13.9231 -0.501219
11.4858 14.2626 0.215229
11.3956 13.1221 -0.776215
20.521 -21.9477 -12.4423
19.9218 -22.6523 -12.6888
20.4879 -21.9282 -11.4859
6.56634 -15.122 -2.19434
7.4802 -15.2374 -1.93398
6.61226 -14.793 -3.09203
-3.69259 -2.42383 -20.924
-3.14895 -1.85054 -20.3836
-3.70667 -3.25631 -20.4517
4.38226 -7.75941 13.6246
4.66258 -8.57477 14.0404
3.65017 -7.45571 14.1613
-16.744 4.02562 -5.01317
-15.9011 3.88908 -4.58058
-16.879 4.97274 -4.98216
16.7978 -15.5968 8.99776
17.0771 -15.0273 8.2809
16.6346 -15.0004 9.72844
18.3123 3.00296 -10.7541
19.1563 2.55323 -10.796
17.6692 2.32681 -10.9674
-2.13434 -10.4891 23.8467
-2.06616 -11.37 24.2151
-3.02707 -10.2115 24.0521
10.4055 11.6507 12.085
9.63151 11.5752 12.6432
10.5679 10.7587 11.7781
1.3624 7.28484 13.5884
0.691108 6.6723 13.889
1.82513 7.54388 14.3853
-13.8205 -10.5652 -20.0064
-13.7079 -9.62635 -20.1552
-14.7174 -10.7468 -20.2872
-1.10778 1.17383 0.75847
-0.79246 0.842668 -0.0824435
-0.312312 1.34319 1.26323
5.58669 -4.30234 11.853
5.67891 -5.2264 11.6209
4.67974 -4.21814 12.1472
21.0167 10.5086 11.7351
20.3432 10.9095 11.1856
21.3266 9.7592 11.2265
1.81288 -6.34465 9.61833
0.993286 -5.85028 9.60844
1.94697 -6.60523 8.70709
3.76779 9.95106 23.6725
3.59518 10.1648 22.7556
3.43279 9.06068 23.7785
-15.3223 -10.4739 16.8343
-15.3468 -10.615 15.8878
-14.7245 -11.146 17.1617
3.20716 5.21608 15.3939
2.98474 4.32167 15.1355
3.972 5.43637 14.8622
-18.975 20.2085 -5.9694
-19.2677 20.8069 -5.28205
-18.4652 19.5432 -5.50721
-12.9728 17.5144 0.501628
-12.9707 18.1939 1.17582
-12.4704 16.7951 0.884314
2.00173 20.9679 -1.62108
2.05188 21.8917 -1.37533
1.28384 20.9263 -2.25284
-23.1474 14.0224 -20.5159
-22.4597 13.5589 -20.9938
-23.7075 14.3912 -21.1989
20.5624 22.9039 9.71211
21.391 22.4588 9.88954
19.9278 22.1955 9.60389
2.51308 2.77971 4.59046
2.4203 3.46455 3.92818
1.7408 2.87819 5.14734
24.0869 13.171 13.712
24.9319 12.7385 13.835
24.0012 13.75 14.4694
18.9394 -2.42715 19.6382
18.9618 -3.01231 18.881
19.8259 -2.07027 19.692
17.8954 2.23656 -5.77056
18.8173 2.38457 -5.5599
17.4728 3.07904 -5.60356
-8.82332 -2.08331 0.673011
-9.51791 -2.57257 0.232108
-8.51632 -1.45802 0.0165073
3.50056 -16.7069 1.55736
4.4373 -16.8711 1.44885
3.38321 -16.6013 2.50145
10.3475 -5.7468 -23.3132
9.7878 -6.51961 -23.2376
10.0055 -5.27628 -24.0734
22.0616 -21.2012 0.372465
21.5157 -21.6708 -0.25817
22.7466 -21.8265 0.609353
-21.8642 -16.5506 15.1216
-21.9582 -17.496 15.2378
-22.552 -16.3157 14.4987
1.84793 19.1185 18.7484
1.6116 18.3518 19.2704
2.70541 18.9038 18.3811
-19.7526 7.63136 22.5097
-20.5871 7.31942 22.8595
-19.091 7.11947 22.975
-15.4656 14.1869 4.84814
-14.9065 13.7609 4.19841
-15.8135 13.4669 5.37434
17.5805 7.4112 7.84416
17.162 6.66193 7.42025
18.4943 7.36646 7.56298
-14.5647 -16.7754 -18.9817
-14.8866 -15.9709 -19.3884
-14.9631 -17.4791 -19.4938
11.2135 -24.2281 14.5406
10.9711 -23.5151 15.1315
12.0319 -23.938 14.1376
0.0608025 -12.8999 -4.61496
-0.595858 -13.4924 -4.24904
0.881829 -13.1667 -4.20153
16.6134 9.89813 20.4734
16.4529 10.5773 19.8183
17.4298 9.48367 20.1944
-5.92035 23.8953 5.51504
-5.96436 23.1716 6.14005
-6.73242 24.3825 5.6544
-9.31012 14.5154 -10.9039
-9.36769 13.8352 -11.575
-8.98809 14.059 -10.1266
-21.4011 7.91413 -2.91778
-21.1609 8.70978 -3.39264
-20.5758 7.44182 -2.80799
14.6645 6.90207 12.8121
14.2939 7.14199 13.6614
14.1777 7.43084 12.1799
-22.703 -3.31615 -17.9215
-22.3527 -3.75666 -18.6958
-23.4591 -2.82662 -18.2454
-10.2138 7.32394 21.6955
-10.67 6.70632 22.2671
-9.69092 6.77172 21.1143
-15.374 -1.76528 23.7441
-15.4844 -0.907712 23.3335
-14.4764 -2.01991 23.5304
1.87291 23.9303 15.0446
2.0441 23.2095 15.6506
2.11371 23.5838 14.1854
-7.66605 10.9714 -18.1676
-8.06585 11.8059 -18.4126
-8.05922 10.333 -18.7627
-5.4239 -6.28326 10.4674
-5.65347 -7.04892 10.994
-5.07836 -6.64738 9.65238
17.8177 -13.1988 17.8893
18.4331 -12.8751 18.5472
17.6925 -14.1214 18.1112
-19.2816 15.1362 -14.3167
-19.2317 15.367 -15.2443
-18.3729 14.9814 -14.0587
2.01743 20.5706 -5.78721
1.662 19.9816 -6.45279
2.13064 20.0182 -5.01371
-18.6641 2.75368 -10.3653
-17.9181 3.31208 -10.5842
-19.3916 3.36308 -10.2408
19.685 -16.9389 7.8687
18.9203 -17.005 8.44063
20.4133 -16.7552 8.46204
2.07697 -6.96018 14.8889
1.66922 -7.8258 14.915
1.60096 -6.49128 14.2035
-11.365 -22.2922 9.30037
-10.897 -22.432 10.1235
-10.8559 -21.6211 8.84582
-7.5767 -10.1636 21.5627
-6.99241 -9.58387 22.0514
-7.46069 -9.90585 20.6482
-22.8332 6.16219 1.29393
-23.7593 6.01254 1.48415
-22.7966 7.06332 0.973213
-14.8013 0.218853 17.6053
-15.3462 0.942577 17.2962
-13.9126 0.458418 17.3426
22.1994 -21.2443 -19.9587
22.562 -20.3874 -19.7338
22.9605 -21.8231 -20.002
21.3248 -18.6994 0.00523476
21.5264 -19.5959 0.273313
22.0771 -18.4318 -0.522645
8.9533 -13.1248 -16.7441
9.2381 -12.2288 -16.5648
8.01519 -13.0482 -16.9182
17.2431 -20.0222 -12.8221
16.8462 -20.5637 -13.5044
16.6103 -19.3193 -12.675
15.1076 -0.673228 -1.05417
14.2012 -0.506533 -1.31275
15.3406 0.0728487 -0.501621
-3.61202 -22.1954 18.2465
-3.60142 -22.9413 18.8464
-3.37271 -22.5669 17.3975
10.3992 -20.5593 -5.37171
10.4594 -20.618 -4.41822
11.0576 -19.9081 -5.61409
-1.94675 -0.820878 6.93673
-1.96324 -0.832159 7.89372
-2.81075 -1.14152 6.67803
1.03425 5.67955 -4.03735
1.20157 4.99215 -3.39259
0.12766 5.94227 -3.87828
-16.8041 -4.98056 1.99771
-16.1828 -4.56833 1.39743
-16.8508 -5.89124 1.70665
19.082 9.05637 19.4931
18.7842 8.23525 19.1016
19.8116 9.33526 18.9398
-2.10164 -12.4133 20.2957
-1.74934 -12.5018 19.4101
-2.32064 -13.3076 20.5574
-22.6263 13.7161 1.45957
-22.2359 13.2867 0.698364
-23.3417 14.2398 1.09895
5.69684 14.7015 13.3367
6.34412 14.2244 13.856
5.05543 15.0096 13.9769
-19.4806 0.750176 -11.9158
-19.1459 1.32384 -11.2265
-19.2862 1.21449 -12.7299
-4.24341 24.4167 -22.9891
-4.23871 23.4825 -22.7806
-4.2708 24.8525 -22.1373
14.3356 22.2336 -3.04851
13.6482 22.6086 -2.49798
14.1481 21.295 -3.0605
-4.16495 17.799 15.1184
-4.0713 17.1141 15.7806
-4.44933 17.3344 14.3313
-4.90955 -10.3732 -12.5037
-5.22708 -9.57417 -12.083
-4.43105 -10.8335 -11.8142
-21.1587 -19.5876 -11.7314
-20.3632 -20.115 -11.6588
-21.8581 -20.226 -11.871
-2.54424 -2.8851 17.1988
-2.55933 -2.37823 18.0106
-3.40545 -3.30105 17.1595
12.7182 -14.2135 13.8157
12.3947 -13.3832 14.1653
12.8803 -14.7529 14.5896
23.2106 -22.2537 -9.35552
22.3763 -22.016 -8.95091
23.8658 -22.0632 -8.68423
-18.7051 -4.35188 -13.9781
-19.1438 -4.9043 -13.3311
-19.04 -3.47139 -13.8084
-19.7025 -7.7608 21.9232
-19.6895 -7.00947 21.3303
-19.3269 -8.47706 21.4113
-2.00255 -6.55484 20.9549
-1.37121 -7.07797 21.4488
-1.57555 -5.7054 20.8437
-20.8648 10.1921 -22.9117
-21.6913 10.3573 -23.3655
-20.2305 10.0469 -23.6136
11.5089 -3.81881 -21.3984
12.4555 -3.74394 -21.519
11.2719 -4.62593 -21.8552
22.2274 -17.8 -13.5503
21.5433 -18.356 -13.1773
22.0279 -17.7689 -14.4859
-1.68827 2.46979 -14.567
-2.4154 1.96637 -14.2008
-1.10613 1.81051 -14.9447
11.9465 15.7996 -2.40002
11.4195 15.1652 -1.91407
12.4522 16.2565 -1.72793
-14.5818 -12.3889 9.68708
-14.9235 -13.1313 10.1854
-14.0441 -12.7866 9.00228
13.2583 -6.45333 22.5177
12.3474 -6.48 22.2248
13.2118 -6.60945 23.4609
-3.30896 -11.2615 2.33776
-2.77654 -11.8034 1.75544
-3.04359 -10.3635 2.1392
-0.972994 8.85509 -20.5854
-0.751496 9.43918 -21.3107
-1.22105 9.44242 -19.8715
22.8611 3.93747 -22.6283
22.5745 3.04855 -22.4188
22.6672 4.44426 -21.8397
-0.286808 3.53717 19.8672
-0.117495 4.11133 20.6142
-1.22673 3.36082 19.9083
-7.75376 -24.1285 24.4014
-8.62755 -24.4538 24.1848
-7.45816 -23.6864 23.6055
1.9819 9.59697 4.89132
2.08026 8.74506 5.31653
1.08149 9.85866 5.08365
-5.31108 -18.6851 -17.2506
-5.02695 -19.4596 -17.736
-6.18542 -18.4959 -17.5911
-12.3191 -11.4721 -5.84247
-13.0321 -12.0934 -5.99028
-12.5522 -11.029 -5.02662
6.09206 10.9712 10.9185
6.21589 11.7836 10.4277
5.1477 10.817 10.8931
20.6503 17.7223 1.70409
21.3134 17.9778 1.06287
19.9211 18.3223 1.54724
5.3142 -9.2537 22.9504
5.43986 -8.82886 22.1019
4.40141 -9.07418 23.1759
12.9078 -12.546 20.0719
12.4701 -12.0194 20.7407
12.9005 -13.4359 20.4244
-21.8651 0.863359 15.8094
-21.4346 0.02307 15.9669
-21.5392 1.43409 16.5053
-21.8032 -6.36929 -3.31222
-22.5698 -5.86317 -3.58152
-21.1203 -6.1203 -3.93503
-12.9515 19.2155 -21.2269
-13.3773 18.3738 -21.3895
-13.3183 19.5132 -20.3944
-20.0716 -0.656646 23.3652
-19.2573 -0.956133 22.961
-20.1082 0.279005 23.1666
4.04296 -15.3892 -14.4008
3.77735 -16.0053 -13.7181
3.42396 -14.6633 -14.3229
2.26617 -10.374 0.724887
1.40809 -10.4716 1.1377
2.77849 -9.86549 1.35351
16.2552 12.9388 0.968555
16.6117 12.1812 1.43243
15.6437 12.5656 0.333704
0.493544 -16.4531 4.51225
0.769547 -17.163 5.09198
-0.454089 -16.3975 4.63526
-17.4934 -3.9132 4.51781
-18.1854 -3.26428 4.39025
-17.3371 -4.2722 3.64436
-9.23359 -11.3585 12.5301
-8.31769 -11.5869 12.6888
-9.69205 -11.6412 13.3214
-3.64848 5.70781 2.45219
-3.54479 4.87094 1.99928
-4.06679 6.27907 1.80805
15.0408 -22.6697 -10.6058
15.9566 -22.9393 -10.6756
14.8113 -22.3693 -11.4852
3.71021 17.1634 4.85749
4.55339 17.61 4.93351
3.37057 17.138 5.75204
15.9209 -13.5154 -10.1455
16.1003 -14.382 -9.78059
15.9423 -12.9278 -9.39019
-2.07531 -12.557 -12.81
-2.09316 -11.6495 -12.5062
-2.05098 -12.4901 -13.7646
16.9169 20.3272 -4.34028
16.1143 20.1907 -3.83683
16.9685 21.2758 -4.45702
-2.36791 -23.936 -9.70826
-2.302 -24.8704 -9.51086
-1.66631 -23.5327 -9.19709
-20.5396 13.7197 -6.94245
-20.748 12.912 -7.41175
-19.583 13.7515 -6.9325
13.0383 20.1733 1.81903
12.6769 19.3211 2.06293
13.719 19.9705 1.17735
-1.439 -11.4196 -19.5523
-0.705005 -12.033 -19.5181
-2.18243 -11.9505 -19.838
-16.6336 -1.43065 16.1996
-16.1455 -1.01674 16.9114
-15.9592 -1.74847 15.5993
-10.1791 -0.471144 -20.8426
-9.22874 -0.360733 -20.8734
-10.4426 -0.53853 -21.7604
-0.332089 -0.150382 -14.6903
-0.275118 -1.02903 -15.0657
0.154743 0.403432 -15.3006
9.04169 6.55993 3.83805
8.26831 6.70213 3.29225
8.70018 6.16339 4.63952
5.75541 2.13907 -11.7501
6.08162 1.63368 -11.0056
5.55457 1.48205 -12.4166
-6.72277 -14.42 -3.45402
-7.18135 -14.738 -4.23174
-6.4408 -15.2143 -3.00022
-9.6586 -0.40251 -11.907
-9.29406 0.165253 -12.586
-10.4289 -0.799173 -12.3139
-4.07413 2.73944 -9.74458
-3.15267 2.90542 -9.94358
-4.32379 3.44991 -9.1537
10.5936 0.259526 3.15891
9.97549 -0.256574 2.64139
10.3077 0.138952 4.06444
-18.5423 -14.1644 -21.4376
-18.8948 -13.3911 -20.9972
-19.2734 -14.7819 -21.4599
7.63274 -22.4787 -11.7949
7.24993 -21.6046 -11.8696
6.88771 -23.0525 -11.6163
5.66565 6.76278 -19.3982
5.35328 7.25303 -18.6377
5.6852 7.40593 -20.1068
14.4144 6.09921 -8.69451
14.7089 6.14951 -7.78513
14.4938 6.995 -9.02237
24.4388 -11.0276 10.3951
23.7848 -11.2522 11.057
24.0363 -10.3211 9.88998
6.70584 3.6824 -16.5466
6.76781 4.19167 -15.7385
6.05063 3.01075 -16.3574
-9.8289 18.9129 -18.4847
-9.84092 18.9116 -19.4419
-8.92461 18.6982 -18.2558
-6.86456 12.9598 -5.759
-6.95759 13.6309 -6.43522
-5.99159 12.5942 -5.90216
-1.27664 -5.38123 16.6173
-1.48099 -4.45416 16.4948
-2.11085 -5.78022 16.8645
16.3765 -16.2859 -9.66601
16.4578 -16.8082 -10.464
17.0102 -16.6716 -9.06112
9.5302 -15.8253 23.5784
9.20596 -16.6381 23.1905
10.4316 -16.0234 23.8323
0.646232 15.5408 5.07558
1.27386 14.8453 4.87909
1.11549 16.1268 5.66942
8.32481 -18.8022 -5.38715
7.56325 -19.3408 -5.17227
9.06545 -19.4073 -5.34802
19.3578 -16.0742 -15.7438
19.5679 -16.9826 -15.5271
19.7928 -15.5587 -15.0646
19.8152 -8.56582 -0.622741
19.2892 -7.88556 -0.202271
20.4234 -8.0858 -1.18475
21.9641 -16.4816 9.27537
21.8874 -16.2222 10.1936
22.7977 -16.108 8.98929
-1.3645 12.2838 -14.3369
-1.20338 13.1563 -14.6959
-0.793836 12.2306 -13.5702
20.7162 -23.3489 -0.904498
21.3513 -23.5491 -1.59207
19.9138 -23.7905 -1.18297
21.0163 -12.8174 -10.7577
20.7102 -13.3552 -10.0274
20.3361 -12.153 -10.8681
12.6411 15.0797 3.94714
12.7729 15.1506 3.00171
11.6949 14.9783 4.05063
19.7041 -10.5459 17.4141
19.7051 -9.74967 16.8828
19.4125 -10.257 18.2788
-0.943731 -20.532 23.3942
-0.538364 -21.287 23.8208
-0.342313 -19.8075 23.5664
-7.45063 23.1648 0.459856
-7.62726 22.3803 0.979027
-8.16498 23.7632 0.678614
-23.4839 -21.6974 -7.64196
-22.8869 -22.2189 -8.17854
-23.1617 -20.8001 -7.72747
-14.4 -23.6271 20.4795
-14.9672 -23.8504 19.7415
-14.9118 -23.0043 20.9957
22.5983 -5.79753 -17.2017
22.1568 -6.63515 -17.0613
22.0665 -5.16255 -16.722
18.1336 16.5385 15.6389
18.3216 16.6107 14.7031
17.2 16.7365 15.7121
-14.3844 -19.7721 -11.6895
-14.9225 -18.995 -11.5385
-14.994 -20.5056 -11.6088
-24.0609 -8.78326 -20.9357
-24.2979 -8.02188 -20.4062
-24.8074 -9.37631 -20.8509
5.91211 23.7154 -2.98878
5.42298 22.9581 -2.6672
6.43083 24.0028 -2.23739
-19.0455 -1.18069 -13.8895
-19.0841 -0.450622 -13.2716
-19.9021 -1.17907 -14.3167
-18.3648 -14.2223 -9.81101
-18.7128 -13.9728 -10.6671
-17.8493 -13.4657 -9.5317
6.56205 -22.2074 -4.35568
5.68578 -22.3268 -4.72192
6.59593 -22.8103 -3.61301
-23.2385 8.67293 0.428386
-23.6261 9.44897 0.833072
-22.3149 8.8973 0.315106
16.3445 19.7486 -7.17003
15.7647 20.1567 -6.527
17.2169 19.813 -6.78141
15.6268 -5.25591 23.2095
15.8546 -5.44359 24.1201
14.6993 -5.48283 23.1425
-20.7204 5.23553 2.65422
-20.2241 6.05393 2.64269
-21.5654 5.46184 2.26581
-19.1383 7.06993 -16.5157
-19.4545 7.4094 -17.353
-19.0632 6.12555 -16.6526
3.83679 6.94988 -1.60491
4.32323 6.5487 -0.884726
4.41835 7.63464 -1.93524
4.8253 -16.641 11.2756
5.35916 -15.8566 11.1491
4.97972 -16.8921 12.1862
17.1605 8.72115 -7.54981
16.9102 8.68241 -8.4729
18.0862 8.47792 -7.54175
-15.7744 -16.1822 -5.11605
-15.6619 -16.2976 -6.05959
-16.4286 -15.4881 -5.03547
22.4714 18.0977 -4.81834
22.8974 18.877 -4.46129
21.8407 17.8398 -4.14619
-23.0171 -12.2879 -7.54178
-23.5338 -11.947 -8.27195
-22.1093 -12.1058 -7.78449
4.09899 4.38127 -14.2506
4.14421 4.85095 -13.4178
4.95382 4.52791 -14.6556
-1.66859 -2.43068 -5.69682
-2.08842 -1.67792 -6.11313
-1.46921 -3.0248 -6.42035
15.2954 21.1586 -21.8918
16.1839 21.0053 -21.5703
15.4129 21.6963 -22.6749
-9.66873 11.6637 -15.5063
-9.55403 10.8399 -15.0327
-9.38239 12.3372 -14.8893
-7.03623 13.5425 6.54027
-6.41162 14.2428 6.35126
-7.59694 13.9004 7.22858
-2.93575 2.70567 11.4467
-2.00673 2.8565 11.6211
-3.0488 2.94298 10.5263
22.9357 -14.3537 6.68239
23.3357 -14.5744 7.52357
23.5557 -14.6783 6.02936
13.9613 11.3688 12.2118
14.3137 10.9457 11.4289
14.4069 10.9357 12.9399
-12.5917 -2.22355 23.1957
-12.3474 -3.11231 23.4539
-12.6701 -2.26358 22.2426
-16.2126 8.86069 -15.3484
-16.9482 9.39525 -15.6473
-16.6015 8.2413 -14.7308
1.67099 8.8322 17.4052
1.22304 9.5376 16.9383
1.32221 8.87439 18.2956
15.0068 10.5634 9.90838
15.3758 10.859 9.07611
14.6842 9.68049 9.72778
9.23386 -11.2404 18.393
8.75565 -11.7631 19.0367
8.90924 -10.3487 18.519
-5.416 -6.85276 -1.54671
-4.91339 -6.03814 -1.54673
-4.88608 -7.4617 -1.03232
23.7032 -5.76235 22.4672
23.6737 -5.08357 23.1415
23.7841 -6.5819 22.9551
-21.6893 0.530215 -2.39759
-22.5816 0.773844 -2.64413
-21.2939 1.3461 -2.09068
-17.6244 11.1201 10.5983
-16.848 11.6543 10.7659
-17.5103 10.3497 11.1547
21.8641 -11.456 -5.02909
21.6294 -11.6814 -5.92927
22.7902 -11.2183 -5.07489
21.1196 2.41638 -9.39372
20.8838 1.84992 -8.65907
21.287 1.81313 -10.1178
2.26515 -13.6835 -3.17467
2.7804 -13.7655 -2.37216
2.55493 -14.4137 -3.72157
-3.10975 17.4684 -0.859911
-2.2164 17.4404 -0.517342
-3.61923 16.9405 -0.245129
21.847 -1.77047 -9.1376
21.1833 -1.76111 -8.44796
21.6288 -1.02045 -9.69086
3.36606 19.7378 -17.4505
3.66802 18.8465 -17.2756
4.05565 20.2988 -17.0957
22.7711 19.2986 21.0337
22.2558 19.3957 21.8344
22.692 18.3716 20.8083
-16.4529 -22.6284 -19.1282
-16.0622 -21.8302 -18.7726
-15.7163 -23.2312 -19.2305
-17.3017 -17.6155 22.1565
-17.4182 -18.5547 22.0131
-18.1018 -17.3399 22.6038
-5.21195 -3.75908 16.2732
-5.58603 -3.98354 17.1252
-5.49584 -4.46537 15.6929
-18.5313 6.0967 -8.2723
-18.3564 6.38266 -9.16889
-18.2085 5.19616 -8.24033
-23.188 22.9098 1.40179
-23.3683 22.3981 2.19041
-24.0395 22.9989 0.973603
6.78208 22.5901 -20.0453
6.13946 21.9293 -19.7872
7.10864 22.9434 -19.2177
8.96172 -13.5718 21.8539
8.95373 -14.515 22.0168
8.63091 -13.4798 20.9604
-7.93832 7.24228 15.0354
-7.36443 6.6377 15.5059
-8.62314 6.68475 14.666
5.07063 9.22871 -2.60444
5.46994 9.56727 -1.80309
4.44631 9.90552 -2.86594
15.4561 8.85931 22.706
15.9726 9.11793 21.9427
15.2884 9.6789 23.1712
20.866 15.203 -5.74516
20.0945 14.8653 -6.20005
21.5375 14.5349 -5.88301
-20.8748 -11.149 13.8319
-21.4419 -11.7661 13.3695
-21.1991 -11.1537 14.7325
4.92889 7.90907 -22.5204
4.1236 8.4008 -22.3594
4.96243 7.80847 -23.4717
15.6417 -13.1282 -19.9802
15.9507 -12.8267 -20.8345
14.775 -12.7331 -19.8854
-17.7133 13.8464 -7.64106
-16.9864 13.9854 -7.03398
-17.4042 14.207 -8.47212
-13.7222 14.974 -13.6919
-13.2034 14.5375 -13.0163
-13.7711 14.3377 -14.4054
21.5066 7.36653 -14.3277
20.5628 7.45332 -14.4613
21.6042 6.55968 -13.822
13.7439 18.9319 22.4661
13.8618 18.7653 21.5309
12.9621 19.482 22.5152
7.18424 -5.66522 15.7711
7.07387 -6.06638 14.909
8.09316 -5.85037 16.0074
-8.80582 -24.6517 9.09769
-9.65265 -24.2691 8.86798
-8.16216 -24.0713 8.69145
9.82017 0.930522 -0.864017
9.43956 0.0608551 -0.986682
10.1469 1.17383 -1.73019
13.1974 -2.62334 5.07858
12.3094 -2.29503 5.22009
13.2009 -2.9213 4.16894
-4.76773 -24.7047 -11.4594
-4.11728 -24.4234 -10.816
-5.55747 -24.2136 -11.2328
24.6567 -5.14695 -4.1356
24.1692 -5.22808 -3.31584
24.1622 -4.50616 -4.64651
5.90755 -10.8374 2.76874
6.45002 -10.1644 2.35757
5.79546 -11.5031 2.09007
19.2469 5.8171 -5.21315
18.7217 5.96558 -5.99951
19.6129 4.94051 -5.33097
-7.77998 -6.98516 -16.3797
-8.65916 -6.84049 -16.7295
-7.29855 -6.18872 -16.6036
21.681 14.462 17.8541
20.9957 15.1301 17.841
21.2247 13.6461 17.6484
10.7025 13.8321 -16.1472
10.1547 13.4449 -16.8301
10.6405 13.2198 -15.414
15.0421 -7.08066 -15.1014
15.7296 -6.88299 -15.7374
14.2846 -7.32258 -15.6342
22.6802 -0.448295 19.2718
22.2092 -0.858565 18.5465
23.0229 -1.18258 19.7813
-18.5409 -15.239 8.81041
-18.7846 -14.345 8.57036
-18.4753 -15.2217 9.7652
21.7322 24.6413 12.6385
22.1274 23.7704 12.6784
20.8913 24.5035 12.2025
10.6052 -17.5817 -1.34922
11.4747 -17.6362 -1.74577
10.0431 -17.2473 -2.04818
20.9254 -24.6289 16.1012
20.9163 -23.6814 16.2372
21.5606 -24.9567 16.7378
-6.03149 7.53195 -4.91646
-6.71928 7.3125 -5.54496
-6.12523 8.47435 -4.77744
-15.3303 -9.25038 -15.3002
-14.5756 -8.68219 -15.4545
-15.9261 -9.06004 -16.0247
-0.991737 -9.70283 -6.52906
-1.12144 -10.1352 -5.68497
-0.96849 -10.4185 -7.16423
20.6569 -16.0401 -18.2523
20.7443 -15.1338 -18.5476
20.4394 -15.9696 -17.3228
17.6067 -2.26859 -1.70789
17.7224 -2.20518 -2.65595
16.7806 -1.81647 -1.53617
3.16464 8.92842 14.945
3.2637 9.75663 14.4754
2.55693 9.12756 15.6572
-22.8281 3.51848 -11.4436
-22.8468 2.64337 -11.0563
-23.617 3.94563 -11.1099
-4.02355 8.72211 9.95734
-4.45841 7.90274 10.1935
-4.57966 9.10149 9.27687
6.0584 5.72094 14.7336
6.29836 5.85429 15.6506
6.84378 5.34973 14.3316
9.99384 9.27007 -13.0891
10.1579 8.51854 -12.5195
10.5157 9.09591 -13.8724
-4.49584 9.84703 5.92873
-3.98401 9.16913 5.48747
-4.09923 10.6705 5.64432
18.0623 14.2059 -23.4877
17.1152 14.1545 -23.3585
18.3821 13.3305 -23.2694
2.00278 0.52136 -19.1229
2.2216 -0.373286 -19.3836
2.84057 0.909515 -18.8706
23.769 -0.962794 -22.3473
24.2365 -1.79149 -22.4518
24.2189 -0.357429 -22.9366
10.6364 9.75154 -18.7993
11.4299 10.2543 -18.6156
10.9326 8.84231 -18.8413
8.18076 3.12641 -8.90637
8.89047 2.64128 -9.3273
8.11942 3.94187 -9.40386
-20.8424 -16.3606 -12.55
-21.195 -16.9934 -13.1757
-21.4352 -15.6112 -12.6065
17.1242 -24.137 10.0837
16.1706 -24.2048 10.0361
17.3169 -23.2488 9.78353
-18.8158 -1.36221 3.81025
-18.7971 -0.648458 4.44778
-19.7441 -1.47953 3.60851
-9.97005 7.54469 -6.07419
-10.1692 7.38393 -6.99653
-9.5647 6.73227 -5.77107
-1.8475 -7.1834 -1.41338
-2.29447 -6.39748 -1.09906
-0.975072 -7.13587 -1.02244
-22.1116 0.858821 7.61284
-22.7889 0.965189 8.28082
-22.3915 1.42639 6.8947
-21.0497 -22.647 -18.8014
-20.7879 -22.242 -19.6282
-21.0187 -23.5879 -18.9746
2.99439 -12.893 2.37994
2.91032 -12.2908 3.11918
2.42469 -12.5249 1.70453
-8.9788 4.56781 19.0164
-9.2025 4.97532 18.1797
-8.62651 5.28359 19.5454
-11.7634 23.4036 8.41074
-11.4867 22.5365 8.11423
-12.7194 23.3763 8.37302
4.47075 -13.3226 -16.4957
4.66561 -13.6588 -15.6209
5.12868 -13.728 -17.0606
6.30582 -20.0172 14.8707
5.50138 -20.1917 15.3593
6.92018 -19.6914 15.5285
-22.4907 0.897497 20.5187
-21.9003 0.149233 20.4303
-23.3674 0.522734 20.4344
-21.7059 17.2222 19.62
-22.2974 17.9032 19.2997
-21.0721 17.1027 18.9128
-5.04444 7.87032 1.59531
-5.29703 7.84682 0.672334
-5.66806 7.28838 2.02968
2.41657 13.8942 -10.4935
3.15204 14.4967 -10.6042
2.8028 13.115 -10.0935
-19.7749 13.9622 14.5827
-19.0605 13.3528 14.7682
-19.3891 14.613 13.9964
11.4172 -7.60804 -13.3095
11.1841 -6.76655 -13.7017
10.5788 -8.04895 -13.1717
14.6381 17.1863 10.6042
14.5445 16.4143 10.0462
14.0239 17.0386 11.3233
21.7682 20.7432 1.40976
21.5356 20.3618 2.25634
21.0085 21.2732 1.16846
-1.49353 4.02432 6.46317
-2.40513 4.04173 6.17179
-1.50409 3.48259 7.25225
12.9189 -8.40882 1.95105
12.592 -8.96398 2.65895
13.8657 -8.54965 1.95338
-10.0799 -0.628729 15.2949
-9.21016 -0.750579 14.9143
-10.6746 -1.05038 14.6745
-12.3381 -1.2752 -19.2072
-11.4418 -1.19095 -19.5326
-12.295 -1.9849 -18.5664
-16.6747 2.09422 -13.2967
-16.9315 2.67625 -12.5815
-17.2767 2.3094 -14.0091
-9.67152 -23.3875 17.734
-9.61131 -24.3423 17.7044
-10.0535 -23.1976 18.5909
-9.71375 -13.0113 -6.01733
-10.5643 -12.592 -6.1479
-9.2719 -12.4614 -5.37032
6.99447 -14.5366 -4.97297
7.14478 -13.6501 -4.64474
7.52366 -14.5908 -5.76875
0.00184844 -22.2635 20.4792
0.788207 -22.1768 21.0181
0.109055 -23.1027 20.0315
6.75634 3.55198 -6.3156
5.98267 3.01778 -6.49533
7.15365 3.69556 -7.17453
-15.2548 5.61885 -19.3405
-15.9184 6.28356 -19.1561
-14.5293 5.83517 -18.7548
-23.5614 17.0446 9.10467
-24.4965 16.9543 8.9213
-23.3321 17.9087 8.76263
7.09865 -0.0959435 -10.3589
6.52248 -0.858591 -10.3076
7.64075 -0.256215 -11.1313
22.9891 -9.37079 22.5222
23.5042 -9.03789 21.7872
23.5564 -9.25539 23.2845
20.4991 3.25545 -5.04094
20.8929 3.33069 -4.17178
21.187 2.87026 -5.58367
21.2243 1.81609 16.6322
21.8519 1.82483 17.3549
20.3684 1.76819 17.0581
16.2778 -7.14017 -17.4403
15.4726 -7.19001 -17.9554
16.9759 -7.3298 -18.0671
-2.00968 20.7702 23.7609
-2.45236 19.9462 23.964
-1.85775 20.7346 22.8165
-0.815312 -10.4994 12.0767
-1.06834 -11.4225 12.0659
-1.15276 -10.1484 11.2526
13.4987 10.7096 -11.3831
14.1578 10.0998 -11.7148
13.9924 11.3252 -10.8412
11.3232 -12.576 1.39543
11.97 -12.1634 1.96785
10.5617 -12.719 1.95753
8.36691 3.45286 7.43677
7.62013 3.2632 6.86881
9.13269 3.32632 6.8766
18.1415 5.48142 3.82877
17.5926 5.6945 4.58342
17.5731 4.96624 3.25634
11.6916 -17.0339 -24.2576
12.2636 -17.6272 -24.7444
12.2803 -16.5634 -23.6675
18.0807 22.9388 -9.40877
18.6609 23.2203 -8.70141
18.4528 22.1095 -9.70872
18.3588 21.8772 -12.8325
18.9038 22.6126 -12.5525
18.2399 21.3518 -12.0413
17.2119 19.4243 -20.102
17.6065 20.2226 -19.751
17.6764 19.2685 -20.9243
-10.2902 -4.8028 -0.0959166
-9.46262 -5.18705 0.193331
-10.8315 -4.77693 0.693092
-12.9133 9.83076 20.9543
-13.2791 9.59388 20.102
-12.3793 9.07668 21.2042
-4.95473 5.2897 -3.30086
-5.64267 5.86644 -3.63304
-4.59656 4.86857 -4.08227
-10.9967 15.878 5.29229
-10.2141 15.3446 5.15312
-11.6186 15.2858 5.71516
-4.31733 -13.2881 -3.48102
-4.19662 -12.5377 -4.06299
-5.25512 -13.4754 -3.5223
17.5185 3.34076 -17.4296
17.8813 4.00976 -18.0102
17.1131 3.83531 -16.7174
-1.55772 -12.4147 -22.6589
-2.02004 -12.8198 -23.3927
-1.75989 -12.9746 -21.9094
14.9911 15.2009 -8.02087
15.5239 14.6028 -7.49687
15.5919 15.538 -8.68541
-16.1565 -18.0508 -1.27199
-16.9298 -18.0234 -1.83547
-15.7781 -17.1743 -1.34108
11.7036 5.49374 14.4383
11.5929 4.75041 13.8454
12.4457 5.25074 14.9918
7.81141 15.3312 20.4191
8.70021 15.3792 20.067
7.37533 14.6707 19.8808
12.036 -14.4324 7.63113
11.9227 -14.2998 8.57231
11.2946 -13.9758 7.2335
2.16962 0.297722 0.263608
2.1733 0.707877 -0.601257
2.07475 1.02798 0.875129
11.2926 2.95736 13.4114
10.7341 2.45317 14.0031
10.8652 2.88479 12.558
5.92024 -7.07832 -17.3529
5.72197 -7.40009 -18.2324
6.87225 -7.14726 -17.2812
-9.15542 -18.2822 -6.04322
-8.62829 -18.2751 -6.84217
-10.0062 -18.6225 -6.32002
14.384 22.3534 16.3525
15.2197 21.9686 16.6167
14.6116 22.9621 15.6497
21.7287 -22.4304 5.34828
21.5807 -21.7218 4.72203
21.874 -21.986 6.18354
-8.48421 13.4429 -8.59033
-7.91208 14.2029 -8.48393
-7.92795 12.6926 -8.38098
19.0817 2.9808 -20.6238
19.2038 2.85201 -21.5645
18.372 2.38268 -20.3898
3.47688 -5.75959 -12.5963
3.04508 -6.60123 -12.4499
3.42278 -5.62338 -13.5422
8.27572 -18.1644 5.19398
8.65895 -17.4713 4.65643
9.02871 -18.6373 5.5484
-5.64216 2.95683 15.1189
-4.75482 2.67087 15.3359
-5.5272 3.55886 14.3837
12.1651 7.66235 -21.3176
11.5183 6.96718 -21.4386
13.0103 7.21751 -21.3811
-8.12819 12.6476 21.7213
-7.45765 12.6666 21.0385
-8.5168 11.7756 21.6519
-4.76083 10.9938 23.9866
-5.50293 11.0297 24.5901
-4.83436 10.1368 23.5665
-22.2431 -15.4465 -16.3901
-23.0786 -15.7868 -16.0703
-21.7782 -16.2177 -16.7147
-3.45071 -14.8069 2.33921
-2.7043 -14.2087 2.30226
-3.96384 -14.5988 1.55841
8.02468 16.9987 -1.80004
8.45797 16.1776 -2.03293
7.68675 16.8497 -0.916965
-7.86912 -8.17524 -0.955677
-7.17822 -7.52449 -1.07984
-8.30093 -8.23241 -1.80803
-22.9977 -13.6998 -5.198
-23.7643 -13.4969 -4.66185
-23.1191 -13.184 -5.99516
21.4197 -17.5145 22.7007
21.6889 -16.8114 23.2917
21.9408 -18.2698 22.9732
1.72659 17.0799 7.08218
2.15918 17.9286 7.17601
1.75659 16.697 7.95895
13.0071 -0.0524317 -3.05904
12.216 -0.543267 -3.28153
12.7742 0.862484 -3.21691
15.5773 16.9224 -3.92352
15.815 16.8721 -2.99765
15.0411 17.7124 -3.99109
8.20341 -19.467 17.0971
8.63076 -18.774 17.6005
7.62703 -19.9003 17.7266
18.9161 22.2305 -2.29546
19.3319 23.0588 -2.53453
19.6262 21.7015 -1.93201
11.1537 24.1766 -12.8355
10.8357 23.2902 -13.0068
11.1765 24.2431 -11.8809
14.0578 -2.95408 -3.61061
13.7279 -3.49815 -4.32572
13.3134 -2.40547 -3.36336