!XOLD, YOLD, ZOLD
-11.5993 -14.1241 -18.2264
-11.9729 -13.2625 -18.4118
-12.1855 -14.7396 -18.6666
-14.6098 -15.4605 -14.2866
-13.9323 -15.7936 -13.6982
-14.9929 -16.2446 -14.6799
-21.6196 -15.657 -13.6321
-21.6448 -15.6278 -12.6757
-20.687 -15.6723 -13.8472
-8.93001 -11.5656 -16.0509
-9.34005 -12.4249 -15.9524
-9.2244 -11.0702 -15.2865
-19.4734 -11.0856 -15.4764
-19.5525 -11.4507 -16.3577
-18.5518 -11.2069 -15.2482
-24.4061 -16.8852 -20.2086
-24.0366 -16.7131 -19.3425
-25.3258 -16.6314 -20.1319
-23.3995 -16.4086 -17.663
-23.5561 -16.7432 -16.7799
-23.3931 -15.4568 -17.5614
-12.1128 -8.07778 -15.4761
-11.9144 -8.41519 -16.3496
-12.2788 -8.85931 -14.9489
-15.1067 -12.8145 -14.2111
-14.9273 -13.7204 -14.4629
-14.3857 -12.5806 -13.6266
-5.62188 -21.6749 -13.4862
-5.67922 -20.7842 -13.1403
-4.86661 -21.6559 -14.0739
-12.3221 -18.4057 -14.7744
-12.197 -19.3278 -14.5502
-12.2441 -18.3779 -15.7281
-18.0457 -20.3727 -16.6648
-18.283 -19.5933 -17.1671
-18.3443 -21.1055 -17.2034
-10.8346 -21.175 -18.3302
-10.531 -21.1638 -17.4225
-10.044 -21.029 -18.8495
-23.5304 -17.1831 -14.902
-22.8882 -16.604 -14.4915
-23.1168 -18.0462 -14.8909
-17.6659 -16.3243 -16.6052
-16.9305 -16.7366 -16.152
-18.0374 -17.0225 -17.1444
-5.76494 -19.1541 -12.3754
-6.65825 -18.8377 -12.2406
-5.32452 -18.992 -11.5411
-19.2146 -21.7145 -12.192
-19.3843 -21.23 -12.9999
-19.7617 -21.2844 -11.5348
-12.7061 -11.9541 -19.3753
-12.8007 -11.9743 -20.3276
-13.0446 -11.0963 -19.1186
-17.4659 -13.6744 -13.0871
-17.9002 -12.9307 -12.6695
-16.7126 -13.2911 -13.5364
-9.81992 -21.0621 -15.8038
-10.5787 -21.1614 -15.2289
-9.36805 -20.2858 -15.4729
-19.6305 -20.3055 -14.4535
-19.3472 -19.4836 -14.0531
-19.0824 -20.3942 -15.2332
-18.5247 -11.5352 -11.6901
-18.4388 -10.5822 -11.7144
-19.4414 -11.6878 -11.4606
-21.7915 -12.266 -19.5303
-22.5195 -12.0191 -20.1005
-21.6262 -11.486 -19.0007
-9.74492 -9.99812 -13.8119
-10.7003 -10.0148 -13.7557
-9.52976 -9.07859 -13.9682
-8.0784 -22.8045 -13.4149
-8.30204 -22.9299 -14.3371
-7.22485 -22.3716 -13.4317
-16.2223 -23.8001 -15.8615
-15.7192 -24.4243 -15.3385
-17.0241 -23.6569 -15.3587
-11.1416 -8.36866 -18.1371
-10.4994 -9.06944 -18.2498
-10.6241 -7.61 -17.8672
-9.18471 -10.1778 -18.393
-8.95436 -10.7925 -19.0896
-9.00066 -10.6532 -17.5828
-8.31204 -12.9385 -10.7545
-8.50941 -13.3432 -11.5992
-8.26678 -12.001 -10.9422
-13.0213 -15.3616 -20.34
-13.7718 -14.8616 -20.6611
-12.4101 -15.3765 -21.0764
-13.0463 -16.5775 24.6143
-12.2488 -16.07 24.7652
-12.7912 -17.24 23.9723
-7.15944 -15.5551 -12.7426
-7.8939 -14.9518 -12.8558
-6.54837 -15.3232 -13.4419
-9.70079 -14.2617 -20.2159
-10.3609 -14.0607 -19.5526
-9.13909 -14.9184 -19.8042
-10.6958 -17.4407 -10.9359
-10.7354 -16.7539 -10.2704
-11.3544 -17.1866 -11.5824
-17.9923 -14.3727 -18.559
-18.4665 -14.9105 -19.1931
-17.7719 -14.9763 -17.8495
-16.6945 -10.8843 -15.3596
-16.5203 -10.7975 -16.2968
-16.0609 -11.5348 -15.057
-18.9352 -15.626 -14.2683
-18.5006 -15.7606 -15.1104
-18.4232 -14.9393 -13.8411
-12.494 -10.1715 -13.6111
-13.2256 -9.66537 -13.2578
-12.6071 -11.0471 -13.2411
-16.8757 -11.7687 -9.51991
-17.4705 -11.1749 -9.06182
-17.2777 -11.8952 -10.3793
-11.0752 -15.4233 -22.3711
-10.4657 -14.9211 -21.8303
-10.9401 -15.0896 -23.258
-21.7755 -15.5595 -10.7969
-21.5057 -14.9548 -10.1056
-22.7201 -15.427 -10.8764
-13.5322 -9.40304 -18.9806
-12.7306 -9.05322 -18.5915
-13.9669 -8.64002 -19.3614
-18.7656 -9.83466 -8.9323
-18.557 -9.43295 -9.77573
-19.7043 -9.68425 -8.82041
-8.3129 -23.6197 -23.5649
-8.72811 -23.737 -22.7104
-7.49655 -23.1579 -23.3737
-19.5697 -15.7165 -20.3781
-20.2428 -15.2725 -20.8937
-20.0339 -16.4308 -19.9416
-5.16869 -10.0945 -22.7426
-5.32343 -9.21648 -23.0909
-4.87524 -10.6041 -23.4979
-23.3335 -12.7304 -12.2196
-23.1422 -12.8665 -13.1475
-23.6632 -13.5761 -11.9159
-22.2303 -10.7627 -15.3624
-21.279 -10.8364 -15.2855
-22.561 -11.6138 -15.0752
-6.13507 -9.69668 -8.23846
-6.27322 -10.6394 -8.32997
-6.93407 -9.37656 -7.8197
-14.8243 -9.84791 -9.81649
-15.0565 -9.09262 -9.27624
-15.559 -10.4525 -9.71213
-14.2321 -6.99456 -20.1654
-14.9229 -6.96584 -20.8273
-14.2153 -6.11098 -19.7976
-19.8518 -8.22803 -17.4185
-19.7266 -8.29778 -16.4721
-20.4508 -8.94265 -17.6346
-12.1023 -7.25115 -23.3688
-11.6513 -8.00981 -23.7393
-11.7587 -7.17901 -22.4783
-11.5309 -7.13055 -20.6163
-12.4777 -7.01649 -20.5338
-11.2843 -7.65088 -19.8516
-8.23418 -18.8897 -8.63062
-8.71283 -19.4681 -9.22435
-8.45823 -19.2056 -7.75528
-21.1462 -11.8673 -10.8434
-21.1304 -12.4624 -10.0938
-21.9416 -12.1037 -11.3207
-18.3725 -23.6463 -14.086
-19.1714 -23.8868 -14.5553
-18.6617 -23.0141 -13.4281
-13.2087 -23.6023 -10.568
-13.1873 -24.2293 -11.291
-14.0841 -23.6982 -10.193
-10.5109 -20.0553 -10.0865
-10.9443 -20.0573 -9.23309
-10.5502 -19.143 -10.3736
-10.8137 -14.7785 24.6975
-10.898 -14.732 23.7452
-9.87322 -14.7034 24.8592
-14.2116 -20.6048 -23.9889
-14.7625 -21.0179 -23.3241
-14.6126 -19.7478 -24.1342
-18.618 -18.118 -13.167
-19.0709 -18.0025 -12.3316
-18.6464 -17.2535 -13.5769
-18.8192 -18.2581 -18.1932
-19.7207 -18.0218 -18.4118
-18.4812 -18.6742 -18.9862
-13.1266 -17.9955 -19.7419
-13.2699 -17.0509 -19.8004
-12.583 -18.2033 -20.5018
-14.1217 -18.0183 -8.58837
-14.3077 -18.8446 -8.14245
-13.3373 -17.6827 -8.15443
-11.7531 -18.6245 -17.4594
-12.3285 -18.3029 -18.1535
-11.4425 -19.4718 -17.7785
-20.0055 -17.6892 -10.8586
-20.6813 -17.0181 -10.7626
-20.4589 -18.5134 -10.6814
-19.3296 -21.0326 -24.7019
-19.0232 -21.294 -23.8335
-19.2452 -20.0791 -24.7092
-23.5601 -22.9345 -16.7603
-23.1325 -22.4813 -16.0337
-23.4523 -22.3457 -17.5072
-22.9024 -19.1517 -20.6285
-22.7844 -19.2745 -21.5705
-23.5649 -18.4645 -20.5572
-12.816 -16.8898 -12.6157
-12.6218 -17.3374 -13.4393
-13.4389 -17.4648 -12.1712
-15.3698 -19.9604 -16.9495
-16.2897 -20.1048 -16.7277
-14.8971 -20.6378 -16.4658
-21.266 -17.4952 -19.0997
-21.9494 -17.1094 -18.5515
-21.7262 -18.1367 -19.641
-17.9237 -19.2732 -20.5392
-17.0304 -19.4343 -20.2352
-17.8147 -18.8434 -21.3874
-12.0456 -21.0674 -14.1929
-12.2603 -21.1043 -13.2608
-12.7978 -21.4684 -14.6284
-17.5033 -18.035 -22.9356
-18.1909 -18.1366 -23.5937
-16.6867 -18.1459 -23.4226
-8.64191 -6.1034 -7.23884
-8.42506 -5.88423 -8.14502
-7.88404 -5.81011 -6.73304
-21.2448 -13.6967 -8.70361
-20.5613 -13.8456 -8.05026
-22.0199 -13.4658 -8.19166
-15.7649 -17.8462 -15.2162
-15.4631 -18.4159 -15.9237
-15.963 -18.4436 -14.495
-18.8556 -22.3499 -18.3126
-19.5601 -22.998 -18.3051
-18.0647 -22.8574 -18.4945
-16.3106 -19.5997 -12.98
-17.1064 -19.0715 -12.9163
-15.686 -19.1634 -12.4007
-15.0992 -14.0035 -21.5439
-15.7611 -14.586 -21.9164
-15.5933 -13.4076 -20.981
-8.87559 -13.5492 -13.3922
-8.24237 -12.8805 -13.6534
-9.39575 -13.7078 -14.1799
-11.6447 -20.5959 -22.928
-12.4819 -20.5764 -23.3917
-11.5212 -19.6987 -22.6179
-14.6978 -13.5028 -10.1368
-14.2499 -13.758 -9.33031
-15.3544 -12.8657 -9.85542
-11.318 -18.1242 -21.7876
-10.4961 -18.2865 -21.3246
-11.2399 -17.2253 -22.1073
-19.3518 -12.0924 -18.0099
-18.7949 -12.8678 -18.0796
-20.0772 -12.2631 -18.6105
-13.0118 -12.2923 -22.1635
-13.5159 -11.4806 -22.2204
-13.6629 -12.966 -21.9674
-24.466 -15.0567 -11.2717
-25.1845 -14.7211 -10.7356
-24.8979 -15.5279 -11.9841
-16.0734 -16.1733 -8.10135
-16.7577 -16.5366 -8.66338
-15.2872 -16.6695 -8.32922
-12.3316 -10.8981 -9.3466
-13.2182 -10.6667 -9.62334
-12.3453 -10.8043 -8.39411
-7.08288 -17.6987 -22.213
-7.72513 -17.9698 -22.8689
-7.01868 -16.7494 -22.3181
-6.2708 -12.331 -8.90097
-7.07587 -12.6664 -9.29542
-5.63131 -12.3436 -9.61311
-7.12033 -9.3315 -20.9149
-7.71978 -10.0491 -20.7102
-6.53258 -9.69177 -21.5789
-10.032 -14.1726 -15.911
-10.6616 -14.0009 -16.6112
-9.85999 -15.1125 -15.9682
-17.0102 -10.5295 -18.1032
-17.0107 -9.61649 -18.3908
-17.9263 -10.8003 -18.1625
-23.3467 -16.0292 -22.6555
-22.7248 -15.3495 -22.3956
-23.7557 -16.3064 -21.8356
-16.7552 -12.412 -20.1303
-16.5596 -11.7069 -19.5131
-17.1688 -13.0904 -19.5965
-14.5211 -8.81766 -12.3825
-14.2685 -7.91071 -12.2097
-14.6036 -9.21328 -11.5148
-17.6042 -7.89082 -18.9401
-18.4454 -7.96685 -18.4898
-17.395 -6.95752 -18.902
-13.1364 -12.5502 -12.262
-13.7557 -12.8276 -11.5868
-12.3095 -12.9634 -12.0136
-10.3432 -11.4798 -22.7061
-9.74162 -11.5785 -21.9682
-11.1919 -11.7593 -22.3629
-10.3797 -9.05117 -9.77177
-11.0269 -9.73775 -9.6104
-10.8999 -8.27625 -9.98429
-5.93264 -7.3982 -23.2329
-5.21577 -6.85983 -22.8975
-6.72451 -6.9075 -23.0129
-21.0604 -20.2636 -10.6374
-21.8097 -20.5001 -11.184
-21.1733 -20.7793 -9.83904
-8.51921 -11.8413 -20.5551
-9.05852 -12.6208 -20.4213
-7.63139 -12.1805 -20.6691
-21.656 -9.12897 -11.1347
-21.4849 -10.0705 -11.1582
-21.6688 -8.91056 -10.2029
-17.151 -10.9335 -25.118
-16.6938 -11.7605 -25.2706
-17.4218 -10.9747 -24.2009
-17.8581 -11.2387 -22.4194
-17.4815 -11.7436 -21.6986
-17.6441 -10.329 -22.2127
-21.5032 -14.1496 -21.6056
-21.5964 -13.5455 -20.869
-21.0948 -13.6261 -22.2951
-12.6791 -21.0419 -11.4779
-11.8784 -20.8143 -11.0052
-12.8809 -21.9331 -11.1929
-11.8275 -22.3221 -20.7869
-11.7656 -21.7554 -21.5558
-11.6045 -21.7526 -20.0506
-14.6884 -10.237 -22.4288
-15.3449 -9.75893 -21.922
-14.6832 -9.80485 -23.2829
-15.3236 -19.6056 -19.6711
-14.628 -18.9548 -19.7649
-15.3687 -19.7747 -18.7301
-14.3304 -18.7761 -11.2709
-14.2506 -18.5041 -10.3567
-13.815 -19.5807 -11.3278
-14.2965 -23.174 -19.8571
-13.8986 -23.1666 -18.9866
-13.5619 -23.0483 -20.4578
-16.916 -8.86235 -21.4252
-16.741 -7.99486 -21.7901
-17.2441 -8.68985 -20.5427
-18.3774 -21.5632 -22.1391
-18.5353 -20.907 -21.4604
-17.4298 -21.6984 -22.1265
-8.23684 -21.3321 -11.0248
-9.08558 -20.9731 -10.766
-8.40159 -21.7533 -11.8684
-9.7607 -16.9208 -16.4929
-10.5461 -17.4025 -16.7526
-9.30595 -17.5099 -15.8909
-20.1467 -12.4485 -23.3209
-19.4725 -11.8886 -22.9358
-19.6752 -12.9924 -23.9519
-22.0588 -17.5803 -24.5705
-22.4163 -17.0311 -23.8729
-22.6491 -17.442 -25.3112
-8.88593 -7.31467 -13.868
-8.9913 -6.56848 -14.4582
-7.93907 -7.40182 -13.758
-20.7169 -24.2411 -15.4159
-20.6866 -24.1792 -16.3706
-21.129 -25.0877 -15.2432
-21.8463 -10.0376 -17.9949
-22.2176 -10.2176 -17.1312
-22.5405 -9.57323 -18.4625
-23.1646 -5.97643 -9.31948
-22.994 -6.83725 -8.93721
-24.1179 -5.93155 -9.39398
-18.2986 -9.19124 -6.30428
-17.6341 -9.80663 -5.99441
-18.4083 -9.40315 -7.23126
-14.9444 -9.30611 24.9768
-15.7488 -9.77511 24.7552
-14.2835 -9.67214 24.389
-12.2389 -10.6419 -6.61892
-12.03 -11.5155 -6.28813
-11.6057 -10.0656 -6.19105
-10.8675 -9.47846 -24.4738
-10.5444 -10.1633 -23.8882
-10.1123 -9.25042 -25.016
-23.4313 -13.183 -7.07266
-23.5232 -14.1001 -6.81446
-24.3214 -12.833 -7.03631
-18.1865 -14.1558 -24.4695
-17.9615 -14.5934 -23.6485
-17.3898 -13.6867 -24.7175
-16.7595 -13.5592 -7.35815
-16.8038 -13.0397 -8.16094
-16.4334 -14.413 -7.64247
-12.9435 -12.9183 -24.8845
-12.899 -12.7476 -23.9437
-12.2473 -13.5551 -25.046
-11.1034 -13.1844 -10.2538
-10.194 -12.9237 -10.3996
-11.5404 -12.3818 -9.96903
-23.8129 -15.7914 -6.34387
-23.8069 -16.716 -6.5917
-23.586 -15.7907 -5.41397
-17.4333 -15.4298 -22.1209
-18.086 -15.4262 -21.4208
-17.3222 -16.3548 -22.3407
-17.4128 -17.6808 -10.007
-18.3392 -17.6807 -10.2481
-17.0316 -16.9673 -10.5188
-15.2481 -18.0576 -24.5295
-15.7396 -17.513 -25.1444
-14.3888 -17.6398 -24.4728
-13.325 -14.465 -7.83008
-12.6152 -14.9702 -8.22648
-13.6764 -15.0384 -7.14894
-8.05549 -14.8431 24.7369
-7.53328 -15.6354 24.6115
-7.58554 -14.1663 24.2498
-16.8494 -20.1082 -8.82072
-16.8146 -20.7078 -9.5661
-16.9517 -19.2417 -9.21429
-16.6948 -21.7593 -11.0964
-16.295 -21.1541 -11.721
-17.5927 -21.8688 -11.4095
-16.4261 -15.4932 -11.2492
-15.7353 -14.9266 -10.9057
-16.8274 -14.983 -11.9527
-11.8574 -17.4467 -7.13529
-11.5932 -18.3582 -7.26056
-11.2424 -16.9431 -7.66861
-10.8244 -15.5302 -8.88938
-11.0067 -14.7448 -9.40528
-9.88788 -15.4796 -8.69805
-18.5693 -20.0361 -6.65427
-19.4919 -19.9206 -6.88143
-18.1029 -19.9307 -7.48353
-15.9186 -24.3349 -10.1313
-16.1447 -23.4047 -10.1271
-16.3419 -24.6812 -10.9168
-14.5171 -20.3845 -7.23002
-14.6153 -20.8728 -6.41264
-15.37 -20.4588 -7.658
-11.7966 -20.202 -7.65971
-12.7385 -20.3623 -7.60258
-11.4082 -20.836 -7.05685
-10.7762 -21.8041 -5.64015
-10.3117 -22.6279 -5.49248
-11.3038 -21.6813 -4.85094
-21.5443 -20.4018 -6.70697
-21.6233 -21.017 -7.43598
-21.4694 -20.9573 -5.93111
-15.7791 -24.3142 -5.21967
-15.778 -24.8859 -5.98743
-16.5013 -23.7055 -5.37473
-16.1063 -6.33336 -22.0897
-15.58 -6.44882 -22.8809
-16.3064 -5.39754 -22.069
-22.4906 -10.9034 -23.453
-21.6563 -11.3719 -23.4265
-22.8931 -11.1764 -24.2774
-23.5548 -8.37428 -15.5558
-23.1803 -9.24687 -15.4352
-23.2154 -7.8637 -14.8207
-6.23768 -7.42657 -13.0443
-6.4208 -7.79615 -12.1806
-5.73852 -6.63006 -12.8637
-6.70113 -8.49512 -10.5943
-7.29422 -9.17428 -10.9156
-6.29864 -8.87729 -9.81444
-7.22822 -11.5903 -5.98572
-8.1284 -11.6816 -5.67335
-6.86433 -10.8753 -5.46355
-6.168 -13.1881 -20.8663
-5.39154 -12.6371 -20.7673
-6.02361 -13.9169 -20.2627
-5.90157 -15.371 -19.242
-6.79925 -15.6304 -19.0344
-5.46696 -15.3086 -18.3914
-6.47967 -12.0881 -13.4093
-6.1 -12.7829 -13.9473
-6.10574 -11.2804 -13.7616
-8.5655 -10.3307 -11.3574
-9.21485 -9.83215 -10.8614
-8.86687 -10.2814 -12.2646
-6.88365 -15.0402 -22.745
-7.41658 -14.6635 -23.4452
-6.80772 -14.3392 -22.0976
-8.83819 -18.515 -24.0419
-9.07924 -18.2411 -24.9268
-9.00109 -19.4581 -24.0298
-8.45867 -16.2905 -18.8206
-8.62786 -17.0998 -19.3029
-8.90248 -16.414 -17.9815
-22.7444 -13.4205 -14.793
-22.9153 -13.5506 -15.7258
-22.3184 -14.2303 -14.5119
-8.12895 -15.0541 -8.87952
-7.53404 -15.7646 -9.11921
-8.05476 -14.4262 -9.59821
-6.31015 -17.1816 -9.37216
-7.04513 -17.7041 -9.05113
-5.59236 -17.8082 -9.46409
-9.45057 -21.1893 -24.5247
-9.10521 -22.062 -24.3369
-10.1966 -21.0938 -23.9326
-8.96748 -18.5396 -20.362
-8.85888 -19.4674 -20.1532
-8.2601 -18.3477 -20.9777
-8.46072 -18.8381 -14.9281
-7.52421 -18.8142 -15.1246
-8.51551 -18.6313 -13.9951
-8.28818 -18.0014 -12.3063
-9.08121 -17.8424 -11.7945
-7.88646 -17.1378 -12.4011
-23.6713 -18.5955 -6.56028
-22.9005 -19.1326 -6.74348
-24.4134 -19.1534 -6.79305
-5.57232 -22.0959 -7.28072
-5.62756 -23.0476 -7.36655
-5.77655 -21.7638 -8.15493
-8.58892 -21.2332 -19.8642
-7.84265 -21.4866 -19.321
-8.72269 -21.9779 -20.4506
-21.8934 -21.8998 -14.6598
-21.4582 -22.7304 -14.8519
-21.1869 -21.254 -14.6559
24.0926 17.7128 14.9204
25.0366 17.554 14.926
23.7026 16.8394 14.8835
-5.80433 -21.4633 -9.90955
-6.69758 -21.3519 -10.235
-5.47311 -22.231 -10.3757
-6.05215 -22.0133 -23.2017
-6.04491 -22.2144 -24.1375
-5.68171 -21.1327 -23.1426
-23.3203 -21.5004 -19.1402
-22.8118 -22.2036 -19.5441
-23.0785 -20.716 -19.6327
-9.54619 -6.1755 -17.863
-8.98295 -6.55753 -18.5361
-9.02248 -5.46946 -17.4842
-22.9829 -21.4616 -12.1715
-22.908 -22.3274 -11.7702
-22.7227 -21.5962 -13.0828
-21.438 -9.07135 -8.31508
-21.0639 -8.42141 -7.72018
-21.8265 -9.72909 -7.73833
-18.1373 -8.79036 -11.4418
-18.3642 -7.87632 -11.2707
-17.6057 -8.76081 -12.2373
-15.2075 -7.77563 -8.07906
-15.0507 -8.24048 -7.25715
-14.5241 -7.10613 -8.11031
-13.1418 -5.95987 -8.17598
-12.6153 -6.29525 -8.90162
-12.5132 -5.82081 -7.46761
-9.10184 -24.7252 -11.7049
-8.83055 -23.9577 -12.2084
-9.15396 -25.4298 -12.3508
-21.2233 -5.8766 -11.2896
-21.5627 -6.38034 -12.0294
-21.9318 -5.88796 -10.6462
-18.5556 -6.10604 -11.3789
-19.4928 -6.05969 -11.1897
-18.4579 -5.6575 -12.2188
-14.0099 -6.13388 -12.0317
-14.5574 -5.86823 -12.7706
-14.0516 -5.39523 -11.4244
-11.8737 -6.86209 -10.4137
-12.5388 -6.67921 -11.0774
-11.0624 -6.51589 -10.7852
-9.57778 -5.9641 -11.569
-9.37815 -5.09525 -11.9175
-9.49715 -6.54918 -12.3222
-21.7918 -7.6149 -13.4516
-21.9109 -8.16492 -12.6773
-20.9593 -7.90369 -13.8254
-19.4898 -8.50062 -14.6534
-19.5174 -9.44602 -14.8007
-18.5981 -8.331 -14.3497
-16.764 -8.57458 -13.8997
-16.753 -9.34523 -14.4673
-15.927 -8.60577 -13.4364
-14.104 -22.0745 -15.7205
-14.8888 -22.621 -15.679
-13.5492 -22.5006 -16.3738
-7.97623 -23.089 -16.2416
-7.45591 -22.8523 -17.0094
-8.63776 -22.4001 -16.1783
-6.46664 -22.1782 -18.448
-5.93813 -22.3589 -19.2253
-5.90298 -21.6372 -17.895
-20.6393 -24.4212 -18.1461
-21.2009 -24.2 -18.889
-20.4356 -25.3486 -18.2669
-22.1393 -23.6926 -20.3721
-21.5297 -23.8015 -21.102
-22.9805 -23.9945 -20.715
-16.6528 -23.9816 -18.6123
-15.8324 -23.737 -19.0405
-16.4575 -23.9368 -17.6762
-12.6543 -23.2351 -17.686
-11.9813 -22.6075 -17.9495
-12.2087 -24.0822 -17.6933
-9.41092 -23.5857 -21.0439
-10.3373 -23.3458 -21.0203
-9.37633 -24.4499 -20.6336
-23.5089 -8.84635 -19.8306
-23.7581 -9.61452 -20.3444
-23.263 -8.19061 -20.4831
-19.9136 -23.9287 -22.2431
-19.2612 -24.3356 -22.8132
-19.5639 -23.0562 -22.0627
-15.602 -21.4666 -21.6805
-15.2947 -22.2339 -21.1977
-15.5879 -20.7573 -21.038
-14.5584 -6.7164 -24.3004
-13.6604 -6.75665 -23.9715
-14.7551 -7.6131 -24.5714
-7.64945 -6.92984 -19.7231
-7.59919 -7.84814 -19.9885
-7.56643 -6.43889 -20.5406
-21.5185 -22.2224 -8.74446
-22.063 -22.8099 -9.26846
-20.9453 -22.806 -8.2474
-19.8294 -23.6326 -7.02865
-19.0204 -23.1808 -6.78827
-19.6246 -24.5621 -6.92676
-23.6315 -8.31725 -23.8134
-23.3646 -7.75869 -23.0833
-23.1772 -9.14573 -23.6602
-8.65899 -8.79337 -7.61009
-9.21407 -8.94877 -8.37428
-8.72086 -7.85064 -7.45627
6.52313 -14.7876 -19.1454
6.2026 -13.9216 -18.8935
5.84525 -15.1351 -19.7251
5.81872 -14.8476 -14.4613
5.97086 -15.1493 -13.5657
5.69827 -15.6508 -14.9679
-3.11248 -15.3505 -13.4178
-3.05804 -16.0595 -12.7771
-2.2107 -15.2238 -13.7127
8.79365 -11.4039 -16.4142
8.62883 -12.3115 -16.1585
8.82834 -10.924 -15.5867
0.544545 -11.2927 -16.9032
0.440713 -12.1331 -17.3495
1.37681 -11.3699 -16.4368
-5.14901 -17.8289 -20.2541
-5.14272 -16.9738 -19.824
-5.89142 -17.7888 -20.857
-4.53059 -15.2036 -16.8903
-4.2598 -16.0389 -16.5093
-3.7349 -14.6715 -16.8923
6.21633 -7.87757 -14.5712
6.48147 -8.30002 -15.3882
6.13593 -8.5965 -13.9444
3.99651 -12.7746 -14.045
4.48871 -13.4838 -14.4585
4.51236 -12.543 -13.2726
12.0792 -21.5983 -14.033
12.364 -20.7698 -13.6475
12.3113 -21.5246 -14.9587
5.95798 -17.6555 -14.9066
6.02711 -18.5765 -14.6553
6.0335 -17.6607 -15.8608
0.279853 -20.4352 -16.3659
-0.0721107 -19.673 -16.8256
-0.0703178 -21.1868 -16.8442
7.70583 -20.5219 -18.1678
8.00385 -20.6817 -17.2724
8.49908 -20.5858 -18.6997
-3.37931 -17.5112 -15.97
-2.46961 -17.4852 -15.6734
-3.34789 -17.9889 -16.7989
0.425582 -16.1498 -16.8319
1.20689 -16.5819 -16.4868
-0.0663476 -16.8501 -17.2607
12.8148 -19.2473 -12.7675
11.9589 -18.8866 -12.536
13.346 -19.129 -11.9801
-0.273504 -22.2264 -12.1861
-0.585311 -21.5631 -12.8018
-1.05848 -22.5027 -11.7132
5.43754 -12.3061 -19.0946
5.54532 -11.8298 -19.9178
5.22631 -11.6293 -18.4515
1.31257 -13.3943 -13.3801
0.987187 -12.6078 -12.9421
2.20093 -13.1663 -13.6541
8.6309 -20.8152 -15.5553
7.80151 -20.6359 -15.1123
9.15225 -20.0243 -15.4178
-1.01499 -20.3379 -13.9707
-0.916956 -19.4341 -13.6711
-0.451099 -20.3975 -14.7419
0.222368 -11.4769 -11.6691
0.356529 -10.5337 -11.576
-0.716663 -11.6005 -11.5306
-3.87345 -11.6642 -20.8206
-4.25966 -11.0273 -21.4217
-3.62332 -11.1492 -20.0535
8.76785 -10.0233 -13.8619
7.86928 -9.98185 -13.5347
9.01552 -9.10906 -13.9998
9.66413 -22.477 -13.095
9.0894 -22.2722 -13.8326
10.5397 -22.2385 -13.3996
2.71677 -23.9987 -15.4654
3.2035 -24.6334 -14.9395
1.85821 -23.9472 -15.0453
7.26497 -8.61276 -16.9964
7.67427 -9.25387 -17.5775
7.77761 -7.81409 -17.1211
8.41491 -10.2519 -18.8748
8.871 -10.7595 -19.5461
8.61895 -10.701 -18.0544
10.0957 -12.9481 -10.5953
10.0055 -13.3911 -11.439
10.176 -12.0208 -10.8184
4.9251 -15.6395 -21.2597
4.31168 -14.9477 -21.5074
5.66612 -15.5277 -21.8552
3.86312 -17.9748 -24.613
4.54608 -17.5672 -24.0804
4.32643 -18.3139 -25.379
11.6553 -15.5538 -12.7152
10.9387 -14.9239 -12.7922
12.2508 -15.3283 -13.4299
8.71669 -14.4987 -20.6785
7.92449 -14.5253 -20.1419
9.36036 -15.0034 -20.1813
8.15702 -17.4336 -10.7595
8.1252 -16.8603 -9.99368
7.51376 -17.0629 -11.3637
0.190415 -13.8412 -18.3166
-0.186994 -14.1604 -19.1364
0.373786 -14.6339 -17.8123
2.98599 -10.8292 -15.7016
3.69342 -10.6057 -16.3065
3.36985 -11.479 -15.1129
-0.48778 -15.1994 -14.3951
-0.0858746 -15.4745 -15.2191
0.135051 -14.5765 -14.0205
6.295 -9.89344 -12.594
6.02517 -9.3962 -11.8218
5.97187 -10.78 -12.4334
1.45252 -11.7347 -9.20443
0.814855 -11.2142 -8.71594
1.07446 -11.8176 -10.0799
7.20907 -15.5669 -22.8007
7.82069 -15.1047 -22.2276
7.38707 -15.2169 -23.6737
-2.6504 -15.2264 -9.72112
-2.42186 -14.3938 -9.30793
-3.48545 -15.0567 -10.1572
4.96838 -10.0838 -17.47
5.75802 -9.61911 -17.1928
4.63047 -9.56743 -18.2017
-0.579326 -9.92084 -8.49614
-0.382024 -9.44687 -9.30401
-1.52773 -9.83927 -8.39557
10.2618 -23.4578 -23.2695
9.91992 -23.5088 -22.3769
11.145 -23.103 -23.1683
-0.661053 -14.9595 -20.7024
-1.44078 -14.5425 -21.0689
-0.744489 -15.8812 -20.947
13.3927 -9.4557 -22.3409
13.0559 -8.6569 -22.7467
13.8787 -9.89339 -23.0399
-4.82711 -12.4888 -11.2018
-5.43185 -12.2541 -11.9056
-4.83563 -13.4459 -11.1873
-5.11703 -9.72721 -13.979
-4.32707 -9.62831 -13.4476
-5.64361 -8.95508 -13.7722
12.4128 -9.78983 -8.07972
12.3706 -10.7424 -8.16401
11.5909 -9.55013 -7.65165
3.63482 -10.0851 -9.66006
3.51005 -9.30121 -9.12513
2.86526 -10.6246 -9.47844
4.62459 -8.54586 -19.7117
4.27313 -8.94154 -20.5092
3.93961 -7.94403 -19.4204
-1.58696 -7.79866 -18.1038
-1.22061 -8.11433 -17.2778
-2.09414 -8.53782 -18.4394
5.95812 -7.19605 -22.6933
6.45162 -7.6689 -23.3635
6.43271 -7.36764 -21.88
7.24722 -7.74728 -20.2062
6.34979 -7.92678 -19.9258
7.74873 -8.50509 -19.9055
10.4694 -19.1056 -8.80989
10.3107 -19.841 -9.40167
10.2354 -19.4396 -7.94391
-2.38942 -11.3415 -10.7584
-2.13234 -11.7383 -9.92613
-3.2428 -11.7279 -10.955
0.288372 -24.0788 -14.145
-0.536511 -24.1004 -14.6302
0.151966 -23.4149 -13.4691
4.39299 -22.8642 -11.0244
4.69375 -23.7487 -11.2329
3.49283 -22.9821 -10.721
7.5441 -20.0275 -10.0674
7.22669 -20.0346 -9.1644
7.71055 -19.104 -10.256
7.66334 -14.3478 24.7238
7.53162 -14.5583 23.7994
8.60523 -14.1972 24.8038
4.08025 -20.7665 -23.5074
3.52142 -21.1356 -22.8236
3.67402 -19.9267 -23.722
-0.593002 -17.7062 -13.1485
-1.27288 -17.5924 -12.4844
-0.484717 -16.8361 -13.5327
-0.848801 -18.4222 -17.8579
-1.77871 -18.5887 -18.0121
-0.41213 -18.7552 -18.6419
5.17448 -17.9757 -19.9471
4.87138 -17.1279 -20.2722
5.86116 -18.2365 -20.5608
3.75256 -18.1741 -8.49863
3.62177 -19.0198 -8.0699
4.56552 -17.8372 -8.12196
6.59728 -18.0728 -17.5462
6.05149 -17.8339 -18.2954
6.92617 -18.9464 -17.7578
-2.71987 -17.3894 -11.4497
-2.66686 -16.6977 -10.7902
-3.21459 -18.0896 -11.024
-0.645054 -21.5671 -24.6167
-0.543676 -21.583 -23.665
-0.615174 -20.6382 -24.8457
-4.90097 -20.6527 -16.838
-4.27176 -21.0495 -16.2356
-5.36906 -20.0089 -16.3063
-5.02162 -19.5105 -22.5659
-4.72388 -19.3152 -21.6774
-5.76207 -18.9203 -22.7061
6.07674 -16.6488 -12.3325
6.04707 -16.9997 -13.2226
5.28031 -16.9799 -11.9174
2.93215 -20.0467 -16.939
2.04633 -20.3161 -16.6962
3.50313 -20.6818 -16.5068
-3.47826 -18.8382 -18.3599
-3.9832 -18.5048 -19.1016
-4.00726 -19.5566 -18.013
0.183733 -19.3698 -20.1607
1.12442 -19.2688 -20.0152
-0.0590311 -18.6137 -20.695
6.18484 -20.3348 -14.3408
5.86549 -20.368 -13.439
5.56128 -20.8661 -14.8359
-0.722737 -17.4551 -21.8834
-1.52586 -17.6656 -22.3598
-0.0302193 -17.5173 -22.5413
9.78058 -6.29525 -7.22773
10.0524 -6.03898 -8.10902
10.4636 -5.94652 -6.65498
-2.07552 -12.8712 -8.38943
-1.47908 -13.173 -7.70428
-2.86853 -12.612 -7.92021
2.33169 -17.6905 -15.6807
2.65925 -18.4185 -16.2088
2.27758 -18.0435 -14.7926
-0.625956 -22.4976 -17.8723
-1.26011 -23.1789 -18.0956
0.227126 -22.9095 -18.0095
2.02109 -18.6331 -13.0875
1.17112 -18.2062 -12.9799
2.61027 -18.1426 -12.5143
3.35874 -13.5638 -22.1131
2.69979 -14.0603 -22.5983
2.87084 -13.1487 -21.4018
9.83744 -13.5809 -13.2035
10.5471 -13.0087 -13.4955
9.29501 -13.7069 -13.982
6.64979 -20.8123 -22.4372
5.78527 -20.8336 -22.8475
6.81706 -19.8833 -22.2781
3.67743 -13.4138 -9.83279
4.09671 -13.7925 -9.06014
3.00634 -12.8297 -9.47964
7.13912 -18.1751 -21.854
7.96375 -18.22 -21.3701
7.1523 -17.3137 -22.2712
-2.10615 -14.053 -16.6148
-1.42316 -13.7782 -17.2265
-1.65124 -14.1599 -15.7794
5.43604 -11.8062 -22.1898
4.87399 -11.0362 -22.104
4.84053 -12.5497 -22.0956
-5.22201 -15.167 -10.8255
-5.47779 -15.8432 -10.1982
-5.80043 -15.3044 -11.5756
2.04161 -16.0814 -7.88156
1.25277 -16.2366 -8.40107
2.65106 -16.7647 -8.16071
6.2048 -10.9066 -9.05046
5.31504 -10.7076 -9.34191
6.17918 -10.7854 -8.10131
11.3953 -18.0233 -22.443
10.8781 -18.3877 -23.1612
11.4168 -17.0821 -22.6162
12.186 -12.4049 -8.83474
11.315 -12.6112 -9.17389
12.7518 -12.4113 -9.60675
11.0659 -9.42972 -20.7848
10.5806 -10.2525 -20.8461
11.8435 -9.56897 -21.3252
8.2814 -13.9766 -15.4547
7.39369 -14.1713 -15.1543
8.54772 -14.7582 -15.9389
1.76171 -10.1318 -19.117
1.34192 -9.33519 -19.4415
1.31441 -10.3197 -18.2918
-4.34464 -15.7721 -23.4644
-3.77499 -15.1247 -23.0488
-5.22663 -15.5344 -23.1783
1.55705 -12.4825 -20.4299
1.77354 -11.6064 -20.1108
1.1496 -12.9169 -19.6805
2.91398 -8.76168 -11.983
3.3983 -7.9365 -11.9559
3.29984 -9.28953 -11.284
0.564441 -7.7912 -19.8525
-0.172694 -7.6114 -19.269
1.29197 -7.29241 -19.4809
5.45004 -12.4299 -11.709
4.74698 -12.6621 -11.1024
6.21873 -12.891 -11.3733
8.05102 -10.8481 -22.6999
8.6332 -11.1956 -22.0242
7.17981 -11.1525 -22.4457
8.19118 -9.2212 -9.72237
7.55718 -9.86851 -9.41373
7.65595 -8.50027 -10.0541
12.5357 -6.93315 -23.0481
13.2576 -6.37551 -22.758
11.7516 -6.51507 -22.6924
-2.42491 -23.0374 -10.8076
-3.30839 -23.1617 -11.1544
-2.49087 -23.2899 -9.88664
9.78488 -11.9756 -20.784
9.21877 -12.7454 -20.728
10.6738 -12.3306 -20.7806
-3.03198 -8.98693 -12.2447
-2.71615 -9.73098 -11.732
-2.96607 -8.24013 -11.6496
1.95073 -11.0551 -24.9394
2.28674 -11.8388 -25.3742
1.41136 -11.3905 -24.2233
0.354439 -11.6514 -22.7988
0.686317 -12.0837 -22.0119
0.42592 -10.7163 -22.607
-2.84321 -13.8899 -22.1011
-3.21 -13.1801 -21.5739
-2.48549 -13.4542 -22.8746
5.36403 -20.4221 -11.7145
6.15393 -20.3634 -11.177
4.9954 -21.2806 -11.5062
6.63448 -22.1788 -20.0884
6.61376 -21.7343 -20.9359
6.80986 -21.4819 -19.4561
3.6609 -9.69823 -22.0312
2.71414 -9.57056 -21.9713
3.89278 -9.3704 -22.9001
2.87237 -19.4105 -19.604
3.69059 -18.9255 -19.7114
2.8523 -19.6448 -18.6761
3.99913 -18.064 -11.258
3.82531 -18.0392 -10.317
4.35175 -18.9401 -11.4139
4.03361 -22.9505 -19.3994
4.40863 -23.3186 -18.5994
4.79167 -22.7344 -19.9424
0.97384 -9.04712 -22.24
0.81119 -8.38291 -22.9098
0.761614 -8.61216 -21.4142
-0.176887 -21.548 -21.8464
-0.267715 -20.8195 -21.2323
0.74403 -21.8014 -21.7837
9.89269 -21.2323 -10.6172
9.00723 -20.893 -10.4864
9.86574 -21.6473 -11.4793
8.71752 -16.5165 -16.6127
7.91641 -16.9062 -16.963
9.09572 -17.2009 -16.0606
-1.66097 -12.6963 -24.2904
-1.01674 -12.2139 -23.7722
-1.13948 -13.1846 -24.9275
-2.83998 -18.0574 -23.5153
-3.32357 -17.2325 -23.5596
-3.50945 -18.719 -23.3413
9.60953 -7.39451 -13.8691
9.48426 -6.5834 -14.3617
10.5583 -7.46844 -13.7658
-2.14471 -24.1824 -15.4892
-2.08154 -24.0825 -16.439
-2.47263 -25.0727 -15.3627
-3.45133 -9.74341 -18.7846
-3.85549 -9.57386 -17.9336
-3.85825 -9.10865 -19.3743
-4.07149 -7.24975 -6.60278
-3.54374 -7.36373 -5.81239
-3.96996 -8.07328 -7.07997
-0.264146 -9.45385 -5.75917
0.538696 -9.94268 -5.57827
-0.416371 -9.58048 -6.69566
3.81537 -9.13131 25.2693
3.15656 -9.81223 25.1331
4.50127 -9.33005 24.6319
6.15129 -10.5624 -6.34484
6.24703 -11.4532 -6.008
6.83798 -10.0635 -5.9024
7.53851 -8.77243 -24.3795
7.91794 -9.43469 -23.8019
8.27341 -8.46981 -24.913
-4.33332 -12.244 -6.88649
-4.19894 -13.1866 -6.78811
-5.17578 -12.1671 -7.33436
0.396165 -14.1807 24.5255
0.652452 -14.4302 25.4133
1.19786 -13.8359 24.1322
1.84355 -13.4669 -7.03182
1.70224 -12.9695 -7.83734
2.02329 -14.3588 -7.32895
5.54602 -12.6059 -24.9125
5.58597 -12.3536 -23.99
6.24506 -13.2517 -25.0152
7.42221 -13.2875 -9.79403
8.32175 -13.0531 -10.0224
7.04869 -12.4831 -9.43388
-3.91827 -14.9033 -7.00112
-3.44829 -15.4487 -7.63192
-3.80198 -15.3511 -6.16316
1.1448 -14.9686 -22.9719
0.642475 -14.9108 -22.1591
1.19456 -15.9065 -23.1569
-0.0934236 -16.3828 -9.58448
-0.941446 -15.9393 -9.60424
0.457542 -15.8738 -10.1791
1.25361 -17.6453 -23.747
0.729214 -18.1155 -24.3952
2.15662 -17.7512 -24.0463
4.87902 -14.5555 -7.56147
5.35316 -15.2994 -7.93285
4.42185 -14.9171 -6.80222
10.3997 -14.1751 24.9448
11.0014 -14.7064 24.4234
10.8425 -13.3315 25.0368
0.156018 -18.99 -8.7316
0.516454 -19.4566 -9.4857
0.0550578 -18.0874 -9.03369
1.27688 -20.274 -10.948
1.71911 -19.7786 -11.6373
0.629503 -20.8051 -11.4117
1.58191 -14.8946 -11.0732
2.42768 -14.6302 -10.7113
1.51207 -14.4122 -11.897
6.15617 -17.3977 -7.40652
6.50779 -18.2823 -7.30555
6.87171 -16.8985 -7.80026
7.95402 -15.6314 -8.54324
7.59049 -14.8231 -8.90479
8.90229 -15.5175 -8.60674
-1.19034 -19.6072 -6.47764
-1.9208 -20.0388 -6.92079
-0.619408 -19.3127 -7.18723
1.69965 -22.9439 -10.2967
1.79557 -22.0027 -10.1512
1.06361 -23.0131 -11.0087
3.93044 -20.5306 -7.04907
3.91118 -20.5552 -6.09238
3.39515 -21.2767 -7.31913
6.63016 -20.0947 -7.47851
5.69218 -20.2579 -7.37956
7.04661 -20.7225 -6.88804
7.76718 -21.8692 -5.63023
8.2964 -22.6581 -5.51306
7.27777 -21.7848 -4.81194
-3.16281 -20.8688 -7.88822
-2.90261 -21.6417 -8.38937
-3.9888 -21.1183 -7.47386
2.35915 -22.8099 -6.67487
2.21626 -23.5778 -7.22828
1.48307 -22.5584 -6.38252
0.663202 -6.95051 -23.9899
1.585 -6.7287 -23.8582
0.356102 -6.32215 -24.6434
-4.2531 -11.8057 -24.8002
-3.33542 -12.0542 -24.6892
-4.6911 -12.6156 -25.0619
-5.72429 -6.37069 -17.695
-6.27488 -6.62212 -18.4365
-5.44565 -7.20173 -17.3103
-4.5455 -8.63137 -16.4789
-4.95785 -9.22646 -15.8527
-3.8628 -8.18828 -15.975
12.1945 -7.52423 -12.9144
12.0308 -7.89396 -12.0468
12.7433 -6.75766 -12.7489
11.759 -8.51596 -10.4113
11.2342 -9.23309 -10.7671
12.1424 -8.87352 -9.61041
11.4465 -11.8697 -5.63154
10.5212 -11.8833 -5.38677
11.8626 -11.3209 -4.96676
12.1383 -13.3953 -20.8971
12.8849 -12.7987 -20.8434
12.3684 -14.1206 -20.3165
12.7731 -15.6292 -19.4154
11.8665 -15.823 -19.1773
13.2271 -15.5382 -18.5776
12.2582 -12.3437 -13.5514
12.7387 -12.9723 -14.0901
12.6166 -11.4916 -13.7997
10.0151 -10.3798 -11.3972
9.3269 -9.91684 -10.9193
9.70365 -10.405 -12.302
11.5366 -15.3231 -22.8024
11.0064 -14.926 -23.4934
11.6639 -14.6211 -22.1643
10.0766 -19.1214 -24.5205